/*--------------------------------*- C++ -*----------------------------------*\
  =========                 |
  \\      /  F ield         | OpenFOAM: The Open Source CFD Toolbox
   \\    /   O peration     | Website:  https://openfoam.org
    \\  /    A nd           | Version:  13
     \\/     M anipulation  |
\*---------------------------------------------------------------------------*/
FoamFile
{
    format      ascii;
    class       surfaceScalarField;
    location    "29";
    object      phi;
}
// * * * * * * * * * * * * * * * * * * * * * * * * * * * * * * * * * * * * * //

dimensions      [0 3 -1 0 0 0 0];

internalField   nonuniform List<scalar> 
28364
(
8.23348e-15
3.84088e-14
3.84088e-14
6.19518e-15
1.01917e-15
1.01916e-15
7.58315e-15
-6.93986e-16
-6.93981e-16
6.6083e-15
4.87437e-16
4.87454e-16
7.29119e-15
-3.4143e-16
-3.41468e-16
6.81082e-15
2.40081e-16
2.40043e-16
7.15158e-15
-1.70285e-16
-1.70207e-16
6.90705e-15
1.22034e-16
1.21968e-16
7.08301e-15
-8.77001e-17
-8.76611e-17
6.95816e-15
6.25993e-17
6.26216e-17
7.04338e-15
-4.27519e-17
-4.2812e-17
6.98867e-15
2.78134e-17
2.78642e-17
7.0209e-15
-1.67736e-17
-1.68837e-17
7.00406e-15
9.00106e-18
9.10016e-18
7.01196e-15
-4.28244e-18
-4.2598e-18
7.00929e-15
1.51644e-18
1.50933e-18
7.00949e-15
-2.61024e-19
-2.702e-19
7.01014e-15
-3.4849e-19
-3.53109e-19
7.00889e-15
5.70776e-19
5.76444e-19
7.01025e-15
-6.56792e-19
-6.66354e-19
7.0088e-15
6.81324e-19
6.83309e-19
7.01017e-15
-6.88275e-19
-6.8549e-19
7.00872e-15
6.92131e-19
7.21089e-19
7.01017e-15
-7.00725e-19
-7.13084e-19
7.00868e-15
6.53602e-19
7.2537e-19
7.01014e-15
-6.38516e-19
-7.08234e-19
7.00875e-15
6.8234e-19
6.8495e-19
7.01006e-15
-6.21448e-19
-6.25684e-19
7.0089e-15
5.56784e-19
5.54885e-19
7.00989e-15
-4.92874e-19
-4.85792e-19
7.00903e-15
4.17818e-19
4.21399e-19
7.00976e-15
-3.63423e-19
-3.60017e-19
7.00911e-15
3.27865e-19
3.16723e-19
7.00978e-15
-3.21568e-19
-3.21797e-19
7.00904e-15
3.53646e-19
3.52454e-19
7.00979e-15
-3.88203e-19
-3.78832e-19
7.00904e-15
3.80534e-19
3.85515e-19
7.00976e-15
-3.76833e-19
-3.62581e-19
7.0091e-15
2.7016e-19
4.0324e-19
7.00978e-15
-2.73172e-19
-4.26133e-19
7.00904e-15
3.61334e-19
4.16409e-19
7.00981e-15
-4.20209e-19
-4.03647e-19
7.00907e-15
3.1468e-19
4.56894e-19
7.00979e-15
-2.70441e-19
-4.68525e-19
7.0091e-15
3.59054e-19
3.71072e-19
7.00968e-15
-3.11043e-19
-3.37564e-19
7.00918e-15
2.72332e-19
2.86057e-19
7.0096e-15
-2.33711e-19
-2.48656e-19
7.00922e-15
2.07087e-19
2.03979e-19
7.00953e-15
-1.77553e-19
-1.71455e-19
1.80192e-19
1.64356e-19
1.63076e-14
4.53937e-14
6.17585e-14
1.41001e-14
1.452e-15
1.77479e-15
1.55895e-14
-9.78773e-16
-1.20464e-15
1.45419e-14
6.88747e-16
8.46433e-16
1.52754e-14
-4.81631e-16
-5.93352e-16
1.47595e-14
3.37539e-16
4.17775e-16
1.51258e-14
-2.38901e-16
-2.96965e-16
1.48619e-14
1.71306e-16
2.13081e-16
1.50527e-14
-1.23955e-16
-1.52772e-16
1.4917e-14
9.14945e-17
1.07878e-16
1.50096e-14
-6.42836e-17
-7.20384e-17
1.49506e-14
4.44332e-17
4.51525e-17
1.49848e-14
-2.83969e-17
-2.6646e-17
1.49675e-14
1.61419e-17
1.37259e-17
1.49755e-14
-8.79511e-18
-5.24008e-18
1.49731e-14
3.65152e-18
1.26545e-18
1.49729e-14
-1.42797e-18
3.38725e-19
1.49737e-14
-8.68393e-20
-1.14965e-18
1.49722e-14
2.72597e-19
1.44312e-18
1.49737e-14
-5.18746e-19
-1.52206e-18
1.49721e-14
5.49767e-19
1.49461e-18
1.49735e-14
-6.41869e-19
-1.49251e-18
1.4972e-14
4.35491e-19
1.71281e-18
1.49735e-14
-4.72961e-19
-1.67074e-18
1.49719e-14
3.85354e-19
1.57232e-18
1.49735e-14
-3.67866e-19
-1.54663e-18
1.4972e-14
6.63446e-19
1.46475e-18
1.49734e-14
-4.81554e-19
-1.40394e-18
1.49722e-14
4.8739e-19
1.19401e-18
1.49732e-14
-4.47072e-19
-1.06512e-18
1.49723e-14
1.7269e-19
1.10615e-18
1.49731e-14
-9.7949e-20
-1.00365e-18
1.49724e-14
2.14829e-19
7.48827e-19
1.49731e-14
-1.92286e-19
-7.54508e-19
1.49723e-14
1.49856e-19
9.18488e-19
1.49731e-14
-2.91854e-19
-9.45443e-19
1.49723e-14
2.80759e-19
9.47195e-19
1.49731e-14
-3.55913e-19
-8.32247e-19
1.49724e-14
-7.28233e-20
1.04638e-18
1.49731e-14
2.13514e-20
-1.0433e-18
1.49723e-14
2.70317e-19
9.86091e-19
1.49731e-14
-4.7737e-19
-9.23584e-19
1.49723e-14
5.15468e-20
1.12915e-18
1.49731e-14
7.87107e-20
-1.16945e-18
1.49724e-14
3.93355e-19
8.3408e-19
1.4973e-14
-3.05765e-19
-8.13449e-19
1.49724e-14
2.65841e-19
6.93419e-19
1.49729e-14
-2.05481e-19
-6.35785e-19
1.49725e-14
2.08662e-19
4.88031e-19
1.49728e-14
-1.70799e-19
-4.2974e-19
2.27135e-19
4.61827e-19
2.14053e-14
4.19373e-14
6.71021e-14
1.93958e-14
1.43961e-15
2.02204e-15
2.07484e-14
-9.611e-16
-1.37031e-15
1.97971e-14
6.7744e-16
9.62719e-16
2.04633e-14
-4.73016e-16
-6.74802e-16
1.99942e-14
3.30712e-16
4.75176e-16
2.03279e-14
-2.33924e-16
-3.37883e-16
2.00867e-14
1.68175e-16
2.42811e-16
2.02615e-14
-1.22695e-16
-1.74252e-16
2.01379e-14
9.25431e-17
1.23589e-16
2.02214e-14
-6.6157e-17
-8.25611e-17
2.01695e-14
4.70746e-17
5.19802e-17
2.01984e-14
-3.08307e-17
-3.06199e-17
2.01847e-14
1.78712e-17
1.56234e-17
2.01904e-14
-1.01938e-17
-6.11824e-18
2.01892e-14
4.36307e-18
1.48857e-18
2.01884e-14
-1.90012e-18
2.91037e-19
2.01894e-14
1.5522e-19
-1.31481e-18
2.01878e-14
6.82893e-21
1.52884e-18
2.01893e-14
-2.86342e-19
-1.64056e-18
2.01877e-14
3.26837e-19
1.6165e-18
2.01891e-14
-4.19083e-19
-1.64794e-18
2.01875e-14
1.13282e-19
1.8037e-18
2.0189e-14
-1.55339e-19
-1.7634e-18
2.01874e-14
5.89848e-21
1.69818e-18
2.0189e-14
1.95721e-21
-1.65563e-18
2.01875e-14
4.70535e-19
1.61501e-18
2.0189e-14
-2.85943e-19
-1.47654e-18
2.01877e-14
3.32674e-19
1.27759e-18
2.01887e-14
-3.0307e-19
-1.14246e-18
2.01878e-14
-3.84757e-20
1.08659e-18
2.01886e-14
1.12442e-19
-9.61597e-19
2.01879e-14
6.55251e-20
7.70512e-19
2.01886e-14
-4.4692e-20
-7.79965e-19
2.01878e-14
-9.76193e-21
9.13988e-19
2.01886e-14
-1.65175e-19
-9.85066e-19
2.01878e-14
1.46407e-19
9.9636e-19
2.01886e-14
-2.58619e-19
-8.98417e-19
2.01879e-14
-4.05224e-19
1.05324e-18
2.01886e-14
3.51024e-19
-1.0739e-18
2.01878e-14
1.11164e-19
1.0421e-18
2.01886e-14
-4.30774e-19
-1.01725e-18
2.01878e-14
-2.45254e-19
1.16583e-18
2.01886e-14
4.4472e-19
-1.18184e-18
2.01879e-14
3.29773e-19
9.17375e-19
2.01884e-14
-2.27322e-19
-8.74014e-19
2.01879e-14
1.95896e-19
7.52063e-19
2.01884e-14
-1.32654e-19
-6.83318e-19
2.0188e-14
1.59862e-19
5.40565e-19
2.01882e-14
-1.29782e-19
-4.53996e-19
2.11956e-19
5.38804e-19
2.49046e-14
3.38559e-14
6.82278e-14
2.30369e-14
1.20658e-15
2.10076e-15
2.42975e-14
-7.99394e-16
-1.42225e-15
2.34119e-14
5.64313e-16
9.98825e-16
2.40322e-14
-3.93535e-16
-6.99832e-16
2.3595e-14
2.74527e-16
4.92697e-16
2.39064e-14
-1.93955e-16
-3.50572e-16
2.36809e-14
1.39439e-16
2.52655e-16
2.38443e-14
-1.02183e-16
-1.82097e-16
2.37295e-14
7.80853e-17
1.30229e-16
2.38065e-14
-5.64559e-17
-8.75212e-17
2.37595e-14
4.09931e-17
5.56061e-17
2.3785e-14
-2.72693e-17
-3.30046e-17
2.37734e-14
1.60584e-17
1.68735e-17
2.37779e-14
-9.44918e-18
-6.82909e-18
2.37773e-14
4.0884e-18
1.7785e-18
2.37762e-14
-1.8023e-18
9.34587e-20
2.37772e-14
2.2841e-19
-1.24393e-18
2.37756e-14
-1.31488e-19
1.46386e-18
2.37771e-14
-1.29204e-19
-1.57892e-18
2.37754e-14
1.90256e-19
1.54911e-18
2.37769e-14
-2.55348e-19
-1.58427e-18
2.37753e-14
-1.26451e-19
1.74189e-18
2.37768e-14
8.92494e-20
-1.70149e-18
2.37752e-14
-3.18682e-19
1.66398e-18
2.37767e-14
3.2517e-19
-1.62563e-18
2.37753e-14
2.86673e-19
1.58969e-18
2.37768e-14
-1.54315e-19
-1.42219e-18
2.37755e-14
2.31547e-19
1.22316e-18
2.37765e-14
-2.0444e-19
-1.08673e-18
2.37756e-14
-1.45779e-19
9.98989e-19
2.37764e-14
2.065e-19
-8.6374e-19
2.37757e-14
5.12096e-21
6.84474e-19
2.37764e-14
6.76233e-21
-6.97973e-19
2.37756e-14
-5.67569e-20
8.31439e-19
2.37764e-14
-1.00907e-19
-9.27724e-19
2.37756e-14
6.68974e-20
9.4999e-19
2.37763e-14
-1.9508e-19
-8.59629e-19
2.37756e-14
-6.66981e-19
1.00736e-18
2.37763e-14
6.5017e-19
-1.04854e-18
2.37756e-14
-4.0675e-20
1.02631e-18
2.37763e-14
-3.67688e-19
-1.0204e-18
2.37756e-14
-5.35284e-19
1.16345e-18
2.37763e-14
8.09053e-19
-1.17774e-18
2.37756e-14
2.44239e-19
9.23257e-19
2.37762e-14
-1.42898e-19
-8.65608e-19
2.37757e-14
1.32683e-19
7.38532e-19
2.37761e-14
-8.15322e-20
-6.61636e-19
2.37757e-14
1.3106e-19
5.20871e-19
2.3776e-14
-1.22209e-19
-4.19329e-19
2.23194e-19
5.197e-19
2.72767e-14
2.34915e-14
6.81388e-14
2.55084e-14
8.55662e-16
2.11932e-15
2.67073e-14
-5.63887e-16
-1.43442e-15
2.5866e-14
3.98609e-16
1.0071e-15
2.64555e-14
-2.77744e-16
-7.0531e-16
2.60397e-14
1.93538e-16
4.9611e-16
2.6336e-14
-1.36642e-16
-3.52854e-16
2.61214e-14
9.81976e-17
2.54337e-16
2.62768e-14
-7.21732e-17
-1.83609e-16
2.61683e-14
5.56011e-17
1.31945e-16
2.62406e-14
-4.05932e-17
-8.90126e-17
2.61971e-14
3.00543e-17
5.69121e-17
2.62202e-14
-2.02882e-17
-3.39814e-17
2.621e-14
1.22071e-17
1.74399e-17
2.62136e-14
-7.44636e-18
-7.16693e-18
2.62135e-14
3.29002e-18
1.89976e-18
2.62121e-14
-1.41593e-18
1.73431e-20
2.62132e-14
2.22253e-19
-1.21971e-18
2.62116e-14
-2.44438e-19
1.47165e-18
2.62131e-14
1.5861e-20
-1.57577e-18
2.62114e-14
7.93975e-20
1.53467e-18
2.62128e-14
-1.33232e-19
-1.54654e-18
2.62112e-14
-3.15786e-19
1.70818e-18
2.62128e-14
2.7457e-19
-1.6569e-18
2.62111e-14
-5.7689e-19
1.61986e-18
2.62127e-14
5.93936e-19
-1.58942e-18
2.62113e-14
1.1561e-19
1.56772e-18
2.62127e-14
-3.0261e-20
-1.41937e-18
2.62115e-14
1.37021e-19
1.21604e-18
2.62125e-14
-1.1433e-19
-1.07466e-18
2.62116e-14
-2.25614e-19
9.87196e-19
2.62124e-14
2.64715e-19
-8.46723e-19
2.62117e-14
-2.44432e-20
6.64166e-19
2.62124e-14
2.59552e-20
-6.80598e-19
2.62115e-14
-7.68117e-20
8.25852e-19
2.62124e-14
-5.17314e-20
-9.16359e-19
2.62115e-14
5.53618e-21
9.37345e-19
2.62123e-14
-1.43351e-19
-8.46706e-19
2.62116e-14
-8.58538e-19
9.65385e-19
2.62122e-14
8.8614e-19
-9.98111e-19
2.62115e-14
-1.7258e-19
1.00253e-18
2.62123e-14
-2.8748e-19
-1.02629e-18
2.62115e-14
-7.81239e-19
1.12865e-18
2.62122e-14
1.11413e-18
-1.12227e-18
2.62116e-14
1.52954e-19
9.15822e-19
2.62121e-14
-6.23133e-20
-8.50286e-19
2.62116e-14
7.93286e-20
7.23013e-19
2.62121e-14
-4.45508e-20
-6.47415e-19
2.62117e-14
1.12988e-19
5.0994e-19
2.62119e-14
-1.19724e-19
-4.17188e-19
2.24768e-19
5.33527e-19
2.87575e-14
1.1989e-14
6.7796e-14
2.70526e-14
4.41793e-16
2.11885e-15
2.82134e-14
-2.90271e-16
-1.43439e-15
2.73997e-14
2.05418e-16
1.00706e-15
2.797e-14
-1.42993e-16
-7.05149e-16
2.75676e-14
9.95985e-17
4.95801e-16
2.78544e-14
-7.03074e-17
-3.52495e-16
2.76467e-14
5.04489e-17
2.54004e-16
2.77969e-14
-3.72203e-17
-1.83429e-16
2.76924e-14
2.8955e-17
1.32021e-16
2.77618e-14
-2.15126e-17
-8.92186e-17
2.77204e-14
1.65658e-17
5.71784e-17
2.77422e-14
-1.15016e-17
-3.42417e-17
2.77327e-14
7.26704e-18
1.76245e-17
2.77359e-14
-4.75119e-18
-7.2783e-18
2.77359e-14
2.18745e-18
1.97248e-18
2.77345e-14
-8.74001e-19
-1.94708e-20
2.77356e-14
1.70946e-19
-1.20946e-18
2.77339e-14
-3.23789e-19
1.4596e-18
2.77354e-14
1.38953e-19
-1.56297e-18
2.77338e-14
-9.66773e-21
1.51986e-18
2.77352e-14
-3.29708e-20
-1.53268e-18
2.77336e-14
-4.56799e-19
1.67631e-18
2.77351e-14
4.14708e-19
-1.63028e-18
2.77335e-14
-7.68275e-19
1.58133e-18
2.77351e-14
7.96576e-19
-1.54774e-18
2.77337e-14
-4.48871e-20
1.55625e-18
2.77351e-14
7.39083e-20
-1.40275e-18
2.77339e-14
5.26637e-20
1.20604e-18
2.77349e-14
-3.0151e-20
-1.06993e-18
2.77339e-14
-2.77007e-19
9.73449e-19
2.77347e-14
2.91563e-19
-8.32561e-19
2.77341e-14
-3.73375e-20
6.59912e-19
2.77348e-14
2.37137e-20
-6.71324e-19
2.77339e-14
-7.1545e-20
8.14303e-19
2.77347e-14
-1.28783e-20
-9.09591e-19
2.77339e-14
-4.10978e-20
9.26695e-19
2.77347e-14
-9.50433e-20
-8.44668e-19
2.7734e-14
-9.70595e-19
9.17441e-19
2.77346e-14
1.04509e-18
-9.42108e-19
2.77339e-14
-2.79695e-19
9.7878e-19
2.77347e-14
-1.97154e-19
-1.02931e-18
2.77339e-14
-9.61692e-19
1.08092e-18
2.77346e-14
1.33289e-18
-1.05029e-18
2.77339e-14
6.00145e-20
9.08118e-19
2.77345e-14
1.18276e-20
-8.35223e-19
2.7734e-14
3.21229e-20
7.12036e-19
2.77344e-14
-1.68333e-20
-6.37112e-19
2.7734e-14
9.67655e-20
5.06763e-19
2.77343e-14
-1.19341e-19
-4.18225e-19
2.21106e-19
5.41048e-19
2.94707e-14
4.58064e-21
6.75693e-14
2.77968e-14
5.34538e-20
2.11577e-15
2.89393e-14
-1.07681e-19
-1.43266e-15
2.81387e-14
1.5286e-19
1.00593e-15
2.86999e-14
1.17754e-19
-7.04348e-16
2.83038e-14
-1.29704e-19
4.95243e-16
2.85861e-14
9.11734e-20
-3.52052e-16
2.83818e-14
-2.69867e-19
2.53646e-16
2.85294e-14
-2.63967e-21
-1.83173e-16
2.8427e-14
4.60231e-19
1.31834e-16
2.84949e-14
-9.9524e-19
-8.91513e-17
2.84545e-14
1.9438e-18
5.71409e-17
2.84756e-14
-1.91431e-18
-3.42564e-17
2.84666e-14
1.82696e-18
1.76657e-17
2.84695e-14
-1.71638e-18
-7.29362e-18
2.84696e-14
9.19384e-19
2.0202e-18
2.84681e-14
-2.58719e-19
-3.53202e-20
2.84693e-14
9.04075e-20
-1.20122e-18
2.84676e-14
-3.66246e-19
1.43907e-18
2.84691e-14
2.35543e-19
-1.54585e-18
2.84675e-14
-8.22965e-20
1.50811e-18
2.84689e-14
5.55884e-20
-1.52891e-18
2.84673e-14
-5.53581e-19
1.64824e-18
2.84688e-14
5.1727e-19
-1.61224e-18
2.84672e-14
-8.95416e-19
1.54716e-18
2.84688e-14
9.31052e-19
-1.5067e-18
2.84674e-14
-1.93634e-19
1.54998e-18
2.84688e-14
1.57106e-19
-1.38572e-18
2.84676e-14
-2.17789e-20
1.19712e-18
2.84686e-14
4.69335e-20
-1.06627e-18
2.84676e-14
-2.9945e-19
9.56988e-19
2.84684e-14
2.89096e-19
-8.16823e-19
2.84677e-14
-3.89353e-20
6.58121e-19
2.84685e-14
7.37516e-21
-6.64422e-19
2.84676e-14
-4.67532e-20
8.02689e-19
2.84684e-14
1.72958e-20
-9.03993e-19
2.84676e-14
-7.54834e-20
9.17744e-19
2.84683e-14
-4.74402e-20
-8.46301e-19
2.84676e-14
-1.00365e-18
8.6961e-19
2.84683e-14
1.12277e-18
-8.85792e-19
2.84676e-14
-3.60517e-19
9.57348e-19
2.84683e-14
-1.01008e-19
-1.03293e-18
2.84676e-14
-1.06914e-18
1.03204e-18
2.84683e-14
1.45503e-18
-9.76175e-19
2.84676e-14
-3.18436e-20
9.0271e-19
2.84682e-14
7.85519e-20
-8.22646e-19
2.84677e-14
-1.12769e-20
7.04771e-19
2.84681e-14
4.87215e-21
-6.29795e-19
2.84677e-14
7.85404e-20
5.06953e-19
2.8468e-14
-1.18693e-19
-4.20017e-19
2.14009e-19
5.44436e-19
2.94707e-14
-1.19889e-14
6.75692e-14
2.77968e-14
-4.41687e-16
2.11577e-15
2.89393e-14
2.9006e-16
-1.43267e-15
2.81387e-14
-2.05112e-16
1.00594e-15
2.86999e-14
1.43215e-16
-7.04359e-16
2.83038e-14
-9.9871e-17
4.95294e-16
2.85861e-14
7.05054e-17
-3.52087e-16
2.83818e-14
-5.10029e-17
2.53651e-16
2.85294e-14
3.72482e-17
-1.83183e-16
2.8427e-14
-2.80302e-17
1.31768e-16
2.84949e-14
1.95626e-17
-8.91205e-17
2.84545e-14
-1.27438e-17
5.70655e-17
2.84756e-14
7.73047e-18
-3.42057e-17
2.84666e-14
-3.68476e-18
1.76559e-17
2.84695e-14
1.39856e-18
-7.26313e-18
2.84696e-14
-3.94648e-19
2.03444e-18
2.84681e-14
3.55769e-19
-2.44684e-20
2.84693e-14
-6.6526e-22
-1.20021e-18
2.84676e-14
-3.8944e-19
1.4353e-18
2.84691e-14
3.18289e-19
-1.54257e-18
2.84675e-14
-1.55359e-19
1.51222e-18
2.84689e-14
1.40707e-19
-1.53166e-18
2.84673e-14
-6.16567e-19
1.6328e-18
2.84688e-14
5.87853e-19
-1.60128e-18
2.84672e-14
-9.63816e-19
1.5221e-18
2.84688e-14
1.00389e-18
-1.47753e-18
2.84674e-14
-3.29701e-19
1.54902e-18
2.84688e-14
2.34976e-19
-1.38714e-18
2.84675e-14
-9.82781e-20
1.20109e-18
2.84686e-14
1.22e-19
-1.06861e-18
2.84676e-14
-3.05535e-19
9.51201e-19
2.84684e-14
2.70587e-19
-8.10783e-19
2.84677e-14
-3.91687e-20
6.60876e-19
2.84685e-14
-7.44417e-21
-6.67103e-19
2.84676e-14
-2.31994e-20
8.07524e-19
2.84684e-14
4.68524e-20
-9.05995e-19
2.84676e-14
-1.0587e-19
9.17056e-19
2.84683e-14
2.83029e-21
-8.5144e-19
2.84676e-14
-9.67818e-19
8.31763e-19
2.84683e-14
1.12147e-18
-8.35433e-19
2.84676e-14
-4.15803e-19
9.40837e-19
2.84683e-14
-9.6532e-23
-1.04111e-18
2.84676e-14
-1.10307e-18
9.89634e-19
2.84683e-14
1.47761e-18
-9.079e-19
2.84676e-14
-1.20007e-19
9.00189e-19
2.84682e-14
1.38043e-19
-8.1329e-19
2.84677e-14
-5.24904e-20
7.00468e-19
2.84681e-14
2.46341e-20
-6.26034e-19
2.84677e-14
5.58086e-20
5.09214e-19
2.8468e-14
-1.11094e-19
-4.26335e-19
1.96405e-19
5.52847e-19
2.87575e-14
-2.34914e-14
6.7796e-14
2.70526e-14
-8.55554e-16
2.11885e-15
2.82134e-14
5.63691e-16
-1.43442e-15
2.73996e-14
-3.98313e-16
1.00712e-15
2.797e-14
2.77935e-16
-7.05188e-16
2.75675e-14
-1.9386e-16
4.95962e-16
2.78544e-14
1.36891e-16
-3.5261e-16
2.76467e-14
-9.87951e-17
2.54033e-16
2.77968e-14
7.22977e-17
-1.83468e-16
2.76925e-14
-5.46675e-17
1.31828e-16
2.77618e-14
3.87676e-17
-8.91264e-17
2.77204e-14
-2.64334e-17
5.69537e-17
2.77422e-14
1.66984e-17
-3.40823e-17
2.77327e-14
-8.84817e-18
1.75852e-17
2.77359e-14
4.33179e-18
-7.18828e-18
2.77359e-14
-1.63732e-18
2.01567e-18
2.77345e-14
9.0006e-19
1.06309e-20
2.77356e-14
-8.19941e-20
-1.20519e-18
2.77339e-14
-4.08765e-19
1.44487e-18
2.77354e-14
3.99047e-19
-1.55096e-18
2.77338e-14
-2.43102e-19
1.52976e-18
2.77352e-14
2.31717e-19
-1.54065e-18
2.77336e-14
-6.57311e-19
1.6289e-18
2.77351e-14
6.35167e-19
-1.59803e-18
2.77335e-14
-9.82544e-19
1.50686e-18
2.77351e-14
1.02415e-18
-1.46006e-18
2.77337e-14
-4.53837e-19
1.55342e-18
2.77351e-14
3.20368e-19
-1.40401e-18
2.77339e-14
-1.8686e-19
1.21625e-18
2.77349e-14
1.99927e-19
-1.07612e-18
2.77339e-14
-3.07402e-19
9.54228e-19
2.77347e-14
2.48981e-19
-8.12632e-19
2.77341e-14
-4.78577e-20
6.67482e-19
2.77348e-14
-6.47685e-21
-6.78091e-19
2.77339e-14
-1.89071e-20
8.2557e-19
2.77347e-14
8.36408e-20
-9.14183e-19
2.77339e-14
-1.40238e-19
9.23025e-19
2.77347e-14
5.97253e-20
-8.5937e-19
2.7734e-14
-8.78599e-19
8.04716e-19
2.77346e-14
1.0508e-18
-7.93672e-19
2.77339e-14
-4.49433e-19
9.29229e-19
2.77347e-14
1.0445e-19
-1.05135e-18
2.77339e-14
-1.07024e-18
9.55988e-19
2.77346e-14
1.40744e-18
-8.50162e-19
2.77339e-14
-2.03251e-19
8.99843e-19
2.77345e-14
1.92017e-19
-8.06948e-19
2.7734e-14
-9.4137e-20
6.98417e-19
2.77344e-14
4.72212e-20
-6.24979e-19
2.7734e-14
2.58587e-20
5.12738e-19
2.77343e-14
-9.05014e-20
-4.35252e-19
1.61942e-19
5.66406e-19
2.72767e-14
-3.38559e-14
6.81388e-14
2.55083e-14
-1.20647e-15
2.11933e-15
2.67073e-14
7.99236e-16
-1.43448e-15
2.5866e-14
-5.64067e-16
1.00722e-15
2.64555e-14
3.93697e-16
-7.05389e-16
2.60397e-14
-2.74934e-16
4.96386e-16
2.6336e-14
1.94272e-16
-3.53043e-16
2.61215e-14
-1.40097e-16
2.544e-16
2.62767e-14
1.02461e-16
-1.83689e-16
2.61683e-14
-7.71455e-17
1.31637e-16
2.62406e-14
5.48442e-17
-8.88605e-17
2.6197e-14
-3.77236e-17
5.65494e-17
2.62202e-14
2.40059e-17
-3.37068e-17
2.621e-14
-1.30868e-17
1.7356e-17
2.62136e-14
6.72452e-18
-7.01526e-18
2.62134e-14
-2.67086e-18
1.9705e-18
2.62121e-14
1.30188e-18
5.76695e-20
2.62132e-14
-1.30507e-19
-1.21661e-18
2.62115e-14
-4.24817e-19
1.44946e-18
2.6213e-14
4.73735e-19
-1.55489e-18
2.62114e-14
-3.43485e-19
1.54313e-18
2.62128e-14
3.42268e-19
-1.56205e-18
2.62112e-14
-6.86069e-19
1.63413e-18
2.62127e-14
6.74467e-19
-1.60929e-18
2.62111e-14
-9.67167e-19
1.50831e-18
2.62127e-14
1.00242e-18
-1.45601e-18
2.62113e-14
-5.70107e-19
1.567e-18
2.62127e-14
4.07415e-19
-1.41602e-18
2.62115e-14
-2.82033e-19
1.22684e-18
2.62125e-14
2.81307e-19
-1.0856e-18
2.62116e-14
-3.07651e-19
9.56407e-19
2.62123e-14
2.29934e-19
-8.15338e-19
2.62117e-14
-7.3462e-20
6.78723e-19
2.62124e-14
1.4e-20
-6.87782e-19
2.62115e-14
-3.36711e-20
8.37399e-19
2.62124e-14
1.3053e-19
-9.23775e-19
2.62115e-14
-1.81835e-19
9.30488e-19
2.62123e-14
1.2719e-19
-8.70757e-19
2.62116e-14
-7.52653e-19
7.89204e-19
2.62122e-14
9.26461e-19
-7.66785e-19
2.62115e-14
-4.68031e-19
9.25409e-19
2.62123e-14
2.09771e-19
-1.0615e-18
2.62115e-14
-9.77242e-19
9.29848e-19
2.62122e-14
1.25543e-18
-8.06044e-19
2.62116e-14
-2.81798e-19
9.02516e-19
2.62121e-14
2.43406e-19
-8.04769e-19
2.62116e-14
-1.40439e-19
7.001e-19
2.62121e-14
7.78518e-20
-6.26867e-19
2.62116e-14
-1.57209e-20
5.19032e-19
2.62119e-14
-5.52894e-20
-4.43019e-19
1.14777e-19
5.76037e-19
2.49046e-14
-4.19373e-14
6.82279e-14
2.30369e-14
-1.43953e-15
2.1008e-15
2.42975e-14
9.61017e-16
-1.42235e-15
2.34118e-14
-6.77297e-16
9.99004e-16
2.40323e-14
4.73167e-16
-6.99955e-16
2.3595e-14
-3.31161e-16
4.9301e-16
2.39063e-14
2.34258e-16
-3.50768e-16
2.3681e-14
-1.68814e-16
2.52682e-16
2.38442e-14
1.23094e-16
-1.82169e-16
2.37296e-14
-9.16188e-17
1.29826e-16
2.38064e-14
6.48368e-17
-8.73161e-17
2.37595e-14
-4.43329e-17
5.51502e-17
2.3785e-14
2.80569e-17
-3.26505e-17
2.37734e-14
-1.54356e-17
1.6754e-17
2.37779e-14
7.9906e-18
-6.61876e-18
2.37773e-14
-3.23786e-18
1.84328e-18
2.37762e-14
1.42357e-18
1.58586e-19
2.37772e-14
-8.8635e-20
-1.25862e-18
2.37756e-14
-4.60873e-19
1.4635e-18
2.37771e-14
5.5687e-19
-1.56998e-18
2.37754e-14
-4.70017e-19
1.5684e-18
2.37768e-14
4.98531e-19
-1.61173e-18
2.37753e-14
-7.29826e-19
1.66114e-18
2.37768e-14
7.36339e-19
-1.64846e-18
2.37752e-14
-9.5411e-19
1.54132e-18
2.37767e-14
9.71034e-19
-1.47963e-18
2.37753e-14
-6.90693e-19
1.59697e-18
2.37768e-14
5.00632e-19
-1.43143e-18
2.37755e-14
-3.89696e-19
1.24552e-18
2.37765e-14
3.78056e-19
-1.11061e-18
2.37756e-14
-3.24797e-19
9.73503e-19
2.37764e-14
2.36873e-19
-8.37229e-19
2.37757e-14
-1.38484e-19
7.13302e-19
2.37764e-14
7.37984e-20
-7.15409e-19
2.37756e-14
-8.19285e-20
8.57082e-19
2.37764e-14
2.01068e-19
-9.45884e-19
2.37756e-14
-2.42738e-19
9.48193e-19
2.37763e-14
2.15315e-19
-8.94515e-19
2.37756e-14
-6.25594e-19
8.03073e-19
2.37763e-14
7.82235e-19
-7.73232e-19
2.37755e-14
-4.83066e-19
9.36064e-19
2.37763e-14
3.12354e-19
-1.07143e-18
2.37756e-14
-8.43753e-19
9.21702e-19
2.37763e-14
1.0481e-18
-7.89557e-19
2.37756e-14
-3.54318e-19
9.0887e-19
2.37762e-14
2.95796e-19
-8.10146e-19
2.37757e-14
-1.97527e-19
7.10675e-19
2.37761e-14
1.25407e-19
-6.37919e-19
2.37757e-14
-7.66805e-20
5.33974e-19
2.3776e-14
7.64649e-23
-4.56803e-19
6.04729e-20
5.88079e-19
2.14053e-14
-4.53937e-14
6.71021e-14
1.93957e-14
-1.45197e-15
2.0221e-15
2.07484e-14
9.7875e-16
-1.37039e-15
1.9797e-14
-6.88708e-16
9.62898e-16
2.04633e-14
4.81798e-16
-6.74965e-16
1.99942e-14
-3.3791e-16
4.75433e-16
2.03279e-14
2.39179e-16
-3.38048e-16
2.00868e-14
-1.71799e-16
2.42762e-16
2.02613e-14
1.24366e-16
-1.74269e-16
2.01379e-14
-9.07124e-17
1.23219e-16
2.02213e-14
6.33951e-17
-8.24128e-17
2.01694e-14
-4.24957e-17
5.15894e-17
2.01985e-14
2.63357e-17
-3.03149e-17
2.01846e-14
-1.43936e-17
1.55419e-17
2.01904e-14
7.29371e-18
-5.93402e-18
2.01892e-14
-2.87271e-18
1.55363e-18
2.01884e-14
1.00199e-18
3.73098e-19
2.01893e-14
1.07498e-19
-1.31853e-18
2.01878e-14
-5.95967e-19
1.52466e-18
2.01893e-14
7.06547e-19
-1.63467e-18
2.01876e-14
-6.84632e-19
1.65022e-18
2.01891e-14
6.93454e-19
-1.66169e-18
2.01875e-14
-8.3136e-19
1.7214e-18
2.0189e-14
8.37227e-19
-1.7004e-18
2.01874e-14
-9.77881e-19
1.59756e-18
2.0189e-14
9.76897e-19
-1.53724e-18
2.01875e-14
-7.94095e-19
1.60886e-18
2.0189e-14
6.5515e-19
-1.49614e-18
2.01877e-14
-5.5418e-19
1.30991e-18
2.01887e-14
5.00274e-19
-1.15175e-18
2.01878e-14
-4.1901e-19
1.04754e-18
2.01886e-14
3.31251e-19
-9.18055e-19
2.01879e-14
-2.67117e-19
7.79093e-19
2.01886e-14
2.31598e-19
-8.03001e-19
2.01878e-14
-2.41838e-19
9.4662e-19
2.01886e-14
3.1768e-19
-9.89428e-19
2.01878e-14
-3.48959e-19
9.8985e-19
2.01885e-14
3.27971e-19
-9.2762e-19
2.01879e-14
-5.52982e-19
8.68292e-19
2.01886e-14
6.52583e-19
-8.15477e-19
2.01878e-14
-4.91826e-19
9.49489e-19
2.01886e-14
3.98855e-19
-1.07204e-18
2.01878e-14
-7.024e-19
9.44e-19
2.01886e-14
8.16494e-19
-8.0406e-19
2.01878e-14
-4.02123e-19
9.03527e-19
2.01884e-14
3.41015e-19
-8.14418e-19
2.01879e-14
-2.61289e-19
7.23155e-19
2.01884e-14
1.96715e-19
-6.59315e-19
2.0188e-14
-1.54701e-19
5.49661e-19
2.01882e-14
9.20562e-20
-4.93485e-19
-5.35598e-20
6.21866e-19
1.63076e-14
-3.84088e-14
6.17585e-14
1.41e-14
-1.01915e-15
1.77481e-15
1.55895e-14
6.93965e-16
-1.20465e-15
1.45418e-14
-4.87453e-16
8.46541e-16
1.52754e-14
3.41535e-16
-5.93422e-16
1.47594e-14
-2.40255e-16
4.17931e-16
1.51258e-14
1.70355e-16
-2.97028e-16
1.4862e-14
-1.22272e-16
2.12994e-16
1.50526e-14
8.80012e-17
-1.52723e-16
1.49171e-14
-6.21993e-17
1.07743e-16
1.50096e-14
4.25616e-17
-7.20978e-17
1.49506e-14
-2.71881e-17
4.51348e-17
1.49848e-14
1.59389e-17
-2.66534e-17
1.49675e-14
-8.30634e-18
1.38106e-17
1.49755e-14
3.80064e-18
-5.26646e-18
1.4973e-14
-1.24407e-18
1.43617e-18
1.49729e-14
1.53739e-21
3.25755e-19
1.49737e-14
3.28535e-19
-1.1619e-18
1.49722e-14
-6.77521e-19
1.36591e-18
1.49737e-14
7.14317e-19
-1.47537e-18
1.49721e-14
-7.56989e-19
1.48065e-18
1.49735e-14
6.95126e-19
-1.4898e-18
1.4972e-14
-8.0637e-19
1.57942e-18
1.49735e-14
8.03178e-19
-1.57346e-18
1.49719e-14
-8.6698e-19
1.47307e-18
1.49735e-14
8.56793e-19
-1.42644e-18
1.4972e-14
-6.99279e-19
1.4404e-18
1.49734e-14
6.83187e-19
-1.35847e-18
1.49721e-14
-5.97079e-19
1.19213e-18
1.49732e-14
4.92728e-19
-1.04423e-18
1.49723e-14
-4.72299e-19
9.96002e-19
1.49731e-14
4.0984e-19
-8.92161e-19
1.49724e-14
-3.20396e-19
7.18826e-19
1.49731e-14
3.44197e-19
-7.5084e-19
1.49723e-14
-3.78193e-19
8.83691e-19
1.49731e-14
3.65566e-19
-9.09189e-19
1.49723e-14
-3.81908e-19
8.99175e-19
1.49731e-14
3.57279e-19
-8.50206e-19
1.49724e-14
-4.3536e-19
8.14308e-19
1.49731e-14
4.47203e-19
-7.51004e-19
1.49723e-14
-4.01534e-19
8.57515e-19
1.49731e-14
3.96236e-19
-9.85141e-19
1.49723e-14
-4.77526e-19
8.64372e-19
1.49731e-14
4.821e-19
-7.13086e-19
1.49724e-14
-3.51143e-19
8.10159e-19
1.4973e-14
3.01442e-19
-7.3146e-19
1.49724e-14
-2.59241e-19
6.5151e-19
1.49729e-14
2.18208e-19
-5.96564e-19
1.49725e-14
-1.83955e-19
4.90948e-19
1.49728e-14
1.45855e-19
-4.58098e-19
-1.18849e-19
5.85448e-19
8.23348e-15
3.84088e-14
6.19516e-15
1.01917e-15
7.58316e-15
-6.94019e-16
6.60826e-15
4.87457e-16
7.2912e-15
-3.41413e-16
6.8108e-15
2.40064e-16
7.15156e-15
-1.70303e-16
6.90709e-15
1.21957e-16
7.08297e-15
-8.75858e-17
6.95818e-15
6.27165e-17
7.04337e-15
-4.2709e-17
6.98866e-15
2.78079e-17
7.02091e-15
-1.68761e-17
7.00403e-15
9.08496e-18
7.01196e-15
-4.28291e-18
7.00927e-15
1.57432e-18
7.00948e-15
-3.59175e-19
7.01013e-15
-3.6451e-19
7.00888e-15
5.43079e-19
7.01024e-15
-6.40144e-19
7.00879e-15
6.52062e-19
7.01017e-15
-6.89518e-19
7.00872e-15
6.54631e-19
7.01017e-15
-6.60831e-19
7.00868e-15
6.1774e-19
7.01013e-15
-5.91401e-19
7.00875e-15
6.94429e-19
7.01005e-15
-6.03057e-19
7.00889e-15
5.41168e-19
7.00989e-15
-4.99919e-19
7.00903e-15
3.91516e-19
7.00976e-15
-3.33377e-19
7.0091e-15
3.38104e-19
7.00977e-15
-3.14695e-19
7.00904e-15
3.46303e-19
7.00979e-15
-3.97559e-19
7.00904e-15
3.82929e-19
7.00976e-15
-3.78268e-19
7.0091e-15
2.81738e-19
7.00978e-15
-2.88454e-19
7.00904e-15
3.71234e-19
7.00981e-15
-4.06199e-19
7.00907e-15
3.27211e-19
7.00979e-15
-2.94608e-19
7.0091e-15
3.58577e-19
7.00968e-15
-3.10921e-19
7.00918e-15
2.69237e-19
7.0096e-15
-2.31996e-19
7.00922e-15
2.07818e-19
7.00953e-15
-1.81407e-19
1.85209e-19
1.63076e-14
6.17585e-14
4.53937e-14
1.41001e-14
1.7748e-15
1.45199e-15
1.55895e-14
-1.20465e-15
-9.78757e-16
1.45419e-14
8.46424e-16
6.88773e-16
1.52754e-14
-5.93315e-16
-4.81706e-16
1.47595e-14
4.178e-16
3.37477e-16
1.51258e-14
-2.97083e-16
-2.38717e-16
1.48619e-14
2.13213e-16
1.71119e-16
1.50527e-14
-1.52852e-16
-1.23839e-16
1.4917e-14
1.07878e-16
9.15216e-17
1.50096e-14
-7.19555e-17
-6.4414e-17
1.49506e-14
4.50903e-17
4.45298e-17
1.49848e-14
-2.63216e-17
-2.87781e-17
1.49675e-14
1.33485e-17
1.65524e-17
1.49755e-14
-5.27041e-18
-8.72939e-18
1.49731e-14
1.23564e-18
3.66397e-18
1.49729e-14
3.68415e-19
-1.46581e-18
1.49737e-14
-1.14137e-18
-1.01424e-19
1.49722e-14
1.43688e-18
2.86871e-19
1.49737e-14
-1.51574e-18
-5.37157e-19
1.49721e-14
1.49646e-18
5.49748e-19
1.49735e-14
-1.49079e-18
-6.4083e-19
1.4972e-14
1.67351e-18
5.05535e-19
1.49735e-14
-1.64747e-18
-5.10724e-19
1.49719e-14
1.49186e-18
5.43738e-19
1.49735e-14
-1.47968e-18
-5.13295e-19
1.4972e-14
1.45595e-18
6.7585e-19
1.49734e-14
-1.40121e-18
-4.89332e-19
1.49722e-14
1.20197e-18
4.77775e-19
1.49732e-14
-1.0718e-18
-4.33355e-19
1.49723e-14
1.09447e-18
1.87804e-19
1.49731e-14
-9.98157e-19
-1.00073e-19
1.49724e-14
7.58728e-19
1.93566e-19
1.49731e-14
-7.5969e-19
-1.87513e-19
1.49723e-14
9.18799e-19
1.47945e-19
1.49731e-14
-9.4909e-19
-2.78138e-19
1.49723e-14
9.34774e-19
2.972e-19
1.49731e-14
-8.33542e-19
-3.38592e-19
1.49724e-14
8.80909e-19
2.24414e-19
1.49731e-14
-8.68485e-19
-3.05421e-19
1.49723e-14
9.10932e-19
3.97529e-19
1.49731e-14
-9.12536e-19
-4.69271e-19
1.49723e-14
9.55795e-19
3.65447e-19
1.49731e-14
-9.58307e-19
-3.29228e-19
1.49724e-14
7.97867e-19
4.3716e-19
1.4973e-14
-7.69806e-19
-3.71597e-19
1.49724e-14
6.60146e-19
3.0845e-19
1.49729e-14
-6.03204e-19
-2.48958e-19
1.49725e-14
4.76102e-19
2.14218e-19
1.49728e-14
-4.21937e-19
-1.70276e-19
4.89387e-19
1.92921e-19
3.68758e-14
8.58462e-14
8.58462e-14
3.47292e-14
2.84825e-15
2.8482e-15
3.61421e-14
-1.91112e-15
-1.91108e-15
3.5146e-14
1.34468e-15
1.34468e-15
3.58396e-14
-9.40153e-16
-9.40206e-16
3.53576e-14
6.57827e-16
6.57769e-16
3.56946e-14
-4.64769e-16
-4.64168e-16
3.54539e-14
3.3175e-16
3.31126e-16
3.56314e-14
-2.39337e-16
-2.39102e-16
3.54954e-14
1.77323e-16
1.77269e-16
3.55999e-14
-1.25232e-16
-1.25816e-16
3.55212e-14
8.78268e-17
8.84034e-17
3.55751e-14
-5.77547e-17
-5.99271e-17
3.55412e-14
3.40027e-17
3.64236e-17
3.55632e-14
-1.84932e-17
-1.87507e-17
3.5552e-14
8.0014e-18
8.36426e-18
3.55572e-14
-3.46739e-18
-3.51543e-18
3.55545e-14
1.55353e-21
-1.61536e-20
3.55555e-14
5.74384e-19
5.46412e-19
3.55548e-14
-1.10921e-18
-1.07998e-18
3.55551e-14
1.0355e-18
1.05478e-18
3.55547e-14
-1.28051e-18
-1.29294e-18
3.55554e-14
1.19016e-18
1.22571e-18
3.55548e-14
-1.20163e-18
-1.27132e-18
3.55552e-14
8.84586e-19
9.54722e-19
3.55548e-14
-9.30277e-19
-9.11675e-19
3.55549e-14
1.36403e-18
1.36259e-18
3.55546e-14
-1.06932e-18
-1.05825e-18
3.55547e-14
9.68872e-19
9.75831e-19
3.55546e-14
-9.85865e-19
-9.56567e-19
3.55552e-14
7.66311e-19
7.75546e-19
3.55545e-14
-6.44087e-19
-6.78141e-19
3.55548e-14
5.94816e-19
5.33776e-19
3.55544e-14
-4.52894e-19
-4.52883e-19
3.5555e-14
5.01497e-19
5.14349e-19
3.55546e-14
-7.80917e-19
-7.75829e-19
3.5555e-14
7.67103e-19
7.74349e-19
3.55548e-14
-7.33528e-19
-8.42607e-19
3.55556e-14
5.15935e-19
6.64761e-19
3.5555e-14
-7.15814e-19
-7.53835e-19
3.55552e-14
9.57966e-19
1.04365e-18
3.5555e-14
-8.69974e-19
-1.1565e-18
3.55556e-14
8.09305e-19
9.3612e-19
3.55551e-14
-1.00642e-18
-8.46943e-19
3.55551e-14
8.95533e-19
1.084e-18
3.55549e-14
-8.96657e-19
-9.97581e-19
3.55552e-14
6.94773e-19
8.41396e-19
3.55548e-14
-5.88371e-19
-7.16032e-19
3.5555e-14
4.30843e-19
5.55503e-19
3.55547e-14
-3.93753e-19
-5.1125e-19
3.18869e-19
3.04685e-19
5.10775e-14
8.64654e-14
1.00457e-13
4.94796e-14
3.03146e-15
3.43702e-15
5.05109e-14
-2.01333e-15
-2.29943e-15
4.9783e-14
1.41864e-15
1.61704e-15
5.02891e-14
-9.90838e-16
-1.13033e-15
4.99377e-14
6.91941e-16
7.9062e-16
5.01836e-14
-4.88331e-16