/*--------------------------------*- C++ -*----------------------------------*\
  =========                 |
  \\      /  F ield         | OpenFOAM: The Open Source CFD Toolbox
   \\    /   O peration     | Website:  https://openfoam.org
    \\  /    A nd           | Version:  13
     \\/     M anipulation  |
\*---------------------------------------------------------------------------*/
FoamFile
{
    format      ascii;
    class       volVectorField;
    location    "29";
    object      U;
}
// * * * * * * * * * * * * * * * * * * * * * * * * * * * * * * * * * * * * * //

dimensions      [0 1 -1 0 0 0 0];

internalField   nonuniform List<vector> 
9996
(
(0.000118289 7.82825e-06 7.82825e-06)
(0.000152245 2.21275e-07 2.21275e-07)
(0.000127245 -1.52707e-07 -1.52706e-07)
(0.000144493 1.06979e-07 1.06982e-07)
(0.000132426 -7.497e-08 -7.49765e-08)
(0.000140849 5.26865e-08 5.26798e-08)
(0.000134974 -3.72804e-08 -3.72678e-08)
(0.000139092 2.654e-08 2.65308e-08)
(0.00013615 -1.89367e-08 -1.89323e-08)
(0.000138301 1.34416e-08 1.34462e-08)
(0.000136706 -9.21269e-09 -9.22251e-09)
(0.000137873 6.06382e-09 6.07262e-09)
(0.000137055 -3.70778e-09 -3.72543e-09)
(0.000137591 2.06667e-09 2.08056e-09)
(0.000137275 -1.02478e-09 -1.02182e-09)
(0.000137449 3.98391e-10 3.96013e-10)
(0.000137367 -8.89319e-11 -8.95062e-11)
(0.000137399 -7.02129e-11 -7.07971e-11)
(0.000137384 1.14511e-10 1.15316e-10)
(0.000137388 -1.42845e-10 -1.44731e-10)
(0.000137387 1.50973e-10 1.51748e-10)
(0.000137385 -1.5446e-10 -1.53998e-10)
(0.000137386 1.40481e-10 1.44794e-10)
(0.000137384 -1.41645e-10 -1.43483e-10)
(0.000137386 1.345e-10 1.43979e-10)
(0.000137383 -1.31371e-10 -1.40133e-10)
(0.000137386 1.44118e-10 1.44303e-10)
(0.000137383 -1.33948e-10 -1.34812e-10)
(0.000137388 1.24072e-10 1.24428e-10)
(0.000137383 -1.09183e-10 -1.08192e-10)
(0.000137387 8.55321e-11 8.62807e-11)
(0.000137383 -7.40616e-11 -7.35165e-11)
(0.000137386 7.68377e-11 7.50498e-11)
(0.000137385 -7.68182e-11 -7.74019e-11)
(0.000137385 7.75491e-11 7.78647e-11)
(0.000137384 -8.15266e-11 -8.00863e-11)
(0.000137386 8.01796e-11 8.08073e-11)
(0.000137383 -8.24397e-11 -8.01747e-11)
(0.000137386 5.06192e-11 6.99922e-11)
(0.000137384 -4.7668e-11 -7.01643e-11)
(0.000137385 7.07784e-11 7.90218e-11)
(0.000137384 -8.97279e-11 -8.67691e-11)
(0.000137386 5.27872e-11 7.4392e-11)
(0.000137384 -3.55272e-11 -6.58976e-11)
(0.000137386 7.35864e-11 7.52292e-11)
(0.000137383 -6.24758e-11 -6.66396e-11)
(0.000137385 5.66242e-11 5.86745e-11)
(0.000137384 -4.9591e-11 -5.19228e-11)
(0.000137385 4.5636e-11 4.50774e-11)
(0.000137384 -4.43518e-11 -4.33062e-11)
(0.000137384 4.98599e-11 4.75432e-11)
(0.000251944 1.59823e-05 1.27187e-05)
(0.000324769 4.63611e-07 4.01123e-07)
(0.000271866 -3.13606e-07 -2.76553e-07)
(0.000308612 2.20568e-07 1.94076e-07)
(0.000282878 -1.54378e-07 -1.36058e-07)
(0.000300879 1.08367e-07 9.5137e-08)
(0.000288282 -7.67697e-08 -6.68331e-08)
(0.00029714 5.49974e-08 4.65619e-08)
(0.000290812 -3.96144e-08 -3.23984e-08)
(0.000295416 2.87061e-08 2.25084e-08)
(0.000292046 -1.98413e-08 -1.50394e-08)
(0.000294473 1.32805e-08 9.81017e-09)
(0.0002928 -8.23755e-09 -5.93689e-09)
(0.000293878 4.54603e-09 3.33796e-09)
(0.00029325 -2.31787e-09 -1.57008e-09)
(0.000293591 8.91222e-10 4.94968e-10)
(0.000293431 -2.65419e-10 3.59718e-12)
(0.000293491 -1.07452e-10 -2.8747e-10)
(0.000293465 1.88059e-10 3.63002e-10)
(0.00029347 -2.44588e-10 -4.13888e-10)
(0.000293471 2.53221e-10 4.11053e-10)
(0.000293465 -2.68739e-10 -3.91024e-10)
(0.000293468 2.40651e-10 3.5206e-10)
(0.000293464 -2.47244e-10 -3.27054e-10)
(0.000293468 2.20882e-10 2.9975e-10)
(0.000293461 -2.14771e-10 -2.93467e-10)
(0.000293469 2.69691e-10 3.31301e-10)
(0.000293462 -2.27882e-10 -3.60403e-10)
(0.000293471 2.12199e-10 3.36385e-10)
(0.000293461 -1.91753e-10 -2.99171e-10)
(0.000293469 1.3469e-10 2.70619e-10)
(0.000293462 -1.10337e-10 -2.46015e-10)
(0.000293468 1.17793e-10 2.53555e-10)
(0.000293465 -1.11634e-10 -2.58211e-10)
(0.000293467 1.14005e-10 2.67738e-10)
(0.000293462 -1.43433e-10 -2.40252e-10)
(0.000293468 1.3939e-10 2.24847e-10)
(0.000293461 -1.48066e-10 -2.15738e-10)
(0.000293469 6.11699e-11 1.4892e-10)
(0.000293462 -6.99517e-11 -1.16228e-10)
(0.000293467 1.32739e-10 1.60464e-10)
(0.000293463 -1.7417e-10 -1.99331e-10)
(0.000293468 8.97058e-11 1.08489e-10)
(0.000293463 -6.27751e-11 -6.10132e-11)
(0.000293467 1.47985e-10 1.51279e-10)
(0.000293463 -1.24477e-10 -1.41158e-10)
(0.000293466 1.08516e-10 1.32537e-10)
(0.000293463 -9.05836e-11 -1.32332e-10)
(0.000293465 8.36668e-11 1.20632e-10)
(0.000293463 -7.07088e-11 -1.45233e-10)
(0.000293464 7.9549e-11 1.77172e-10)
(0.000339058 1.64346e-05 1.29555e-05)
(0.000437567 5.43438e-07 4.39581e-07)
(0.000366623 -3.64502e-07 -3.03206e-07)
(0.000416078 2.56696e-07 2.12994e-07)
(0.000381422 -1.79386e-07 -1.49387e-07)
(0.000405697 1.25617e-07 1.04489e-07)
(0.000388669 -8.89205e-08 -7.33331e-08)
(0.000400673 6.39036e-08 5.09411e-08)
(0.00039209 -4.64537e-08 -3.5276e-08)
(0.000398319 3.46595e-08 2.449e-08)
(0.0003938 -2.45455e-08 -1.63517e-08)
(0.000397018 1.71882e-08 1.07561e-08)
(0.000394833 -1.11046e-08 -6.5758e-09)
(0.000396219 6.35433e-09 3.74989e-09)
(0.000395422 -3.54053e-09 -1.82169e-09)
(0.000395845 1.49281e-09 6.29274e-10)
(0.000395649 -6.2391e-10 -6.11718e-11)
(0.00039572 1.39413e-11 -3.06769e-10)
(0.000395691 4.92493e-11 3.50708e-10)
(0.000395695 -1.47366e-10 -4.27375e-10)
(0.000395697 1.59965e-10 4.23954e-10)
(0.000395689 -1.97839e-10 -4.31976e-10)
(0.000395693 1.05611e-10 3.57611e-10)
(0.000395686 -1.22546e-10 -3.45793e-10)
(0.000395693 8.19983e-11 3.10456e-10)
(0.000395684 -7.65196e-11 -2.93243e-10)
(0.000395694 2.14358e-10 3.6142e-10)
(0.000395685 -1.39748e-10 -3.58534e-10)
(0.000395697 1.49435e-10 3.48955e-10)
(0.000395685 -1.37652e-10 -3.23019e-10)
(0.000395694 2.19753e-11 2.69371e-10)
(0.000395685 5.8317e-12 -2.44715e-10)
(0.000395693 4.83868e-11 2.78514e-10)
(0.000395688 -3.94694e-11 -2.73047e-10)
(0.000395693 2.01019e-11 2.62412e-10)
(0.000395684 -8.27229e-11 -2.53458e-10)
(0.000395695 7.78875e-11 2.32533e-10)
(0.000395683 -1.13382e-10 -2.35615e-10)
(0.000395694 -8.25735e-11 1.43348e-10)
(0.000395684 5.92841e-11 -1.18867e-10)
(0.000395692 7.47992e-11 1.68799e-10)
(0.000395685 -1.68679e-10 -2.06428e-10)
(0.000395692 -2.60798e-11 1.02618e-10)
(0.000395686 8.33103e-11 -5.41236e-11)
(0.000395691 1.36457e-10 1.6048e-10)
(0.000395686 -1.00764e-10 -1.51158e-10)
(0.00039569 8.67051e-11 1.43132e-10)
(0.000395687 -6.26372e-11 -1.41307e-10)
(0.000395689 6.78441e-11 1.3271e-10)
(0.000395687 -5.24736e-11 -1.55817e-10)
(0.000395687 7.59007e-11 1.86223e-10)
(0.000398775 1.38971e-05 1.26686e-05)
(0.000515073 4.88873e-07 4.44126e-07)
(0.000431829 -3.2499e-07 -3.06401e-07)
(0.000489991 2.29221e-07 2.15332e-07)
(0.000449211 -1.59936e-07 -1.51087e-07)
(0.000477808 1.11683e-07 1.05812e-07)
(0.000457711 -7.89617e-08 -7.43495e-08)
(0.000471907 5.68074e-08 5.17652e-08)
(0.000461753 -4.158e-08 -3.59152e-08)
(0.000469103 3.16294e-08 2.4977e-08)
(0.00046381 -2.2761e-08 -1.67214e-08)
(0.000467544 1.63766e-08 1.10184e-08)
(0.000465039 -1.08166e-08 -6.75718e-09)
(0.000466607 6.31097e-09 3.86967e-09)
(0.000465714 -3.65857e-09 -1.8994e-09)
(0.000466181 1.57261e-09 6.93181e-10)
(0.000465967 -6.96934e-10 -1.04354e-10)
(0.000466042 7.89486e-11 -2.83903e-10)
(0.000466012 -2.78796e-11 3.14406e-10)
(0.000466014 -7.07779e-11 -4.01093e-10)
(0.000466019 8.78228e-11 4.02441e-10)
(0.000466008 -1.1573e-10 -4.21707e-10)
(0.000466015 -7.34613e-12 3.36962e-10)
(0.000466005 -6.81267e-12 -3.31262e-10)
(0.000466015 -5.92536e-11 3e-10)
(0.000466003 6.09497e-11 -2.79659e-10)
(0.000466016 1.34746e-10 3.53291e-10)
(0.000466005 -7.58329e-11 -3.36099e-10)
(0.000466018 9.8258e-11 3.31692e-10)
(0.000466005 -8.77677e-11 -3.08394e-10)
(0.000466015 -3.92633e-11 2.42839e-10)
(0.000466004 6.44534e-11 -2.17979e-10)
(0.000466015 6.02286e-12 2.62745e-10)
(0.000466008 -3.9041e-13 -2.5637e-10)
(0.000466015 -1.86578e-11 2.38763e-10)
(0.000466003 -4.34642e-11 -2.37766e-10)
(0.000466017 3.44771e-11 2.19384e-10)
(0.000466001 -7.87627e-11 -2.2599e-10)
(0.000466016 -1.97361e-10 1.37435e-10)
(0.000466002 1.82397e-10 -1.20552e-10)
(0.000466014 1.14768e-11 1.66646e-10)
(0.000466004 -1.44793e-10 -1.96974e-10)
(0.000466013 -1.40606e-10 1.04461e-10)
(0.000466005 2.25979e-10 -6.24436e-11)
(0.000466012 1.04113e-10 1.58505e-10)
(0.000466006 -6.62055e-11 -1.49395e-10)
(0.000466009 5.78979e-11 1.40792e-10)
(0.000466007 -3.64253e-11 -1.3699e-10)
(0.000466008 5.0399e-11 1.28577e-10)
(0.000466007 -4.26017e-11 -1.46922e-10)
(0.000466007 7.66771e-11 1.75618e-10)
(0.000439214 1.04023e-05 1.24193e-05)
(0.000567654 3.76517e-07 4.43433e-07)
(0.000476113 -2.48575e-07 -3.05997e-07)
(0.000540168 1.75594e-07 2.15027e-07)
(0.000495237 -1.22382e-07 -1.50847e-07)
(0.000526773 8.52908e-08 1.05622e-07)
(0.000504579 -6.02254e-08 -7.42325e-08)
(0.000520278 4.32933e-08 5.17182e-08)
(0.000509048 -3.17913e-08 -3.59327e-08)
(0.00051716 2.44322e-08 2.50544e-08)
(0.000511351 -1.77635e-08 -1.68095e-08)
(0.000515419 1.30301e-08 1.10972e-08)
(0.000512714 -8.73352e-09 -6.81683e-09)
(0.000514391 5.18998e-09 3.90582e-09)
(0.000513443 -3.10579e-09 -1.92008e-09)
(0.000513933 1.35366e-09 7.02423e-10)
(0.000513711 -5.93462e-10 -1.13141e-10)
(0.000513787 8.58454e-11 -2.75208e-10)
(0.000513758 -6.87509e-11 3.12892e-10)
(0.000513758 -1.93337e-11 -3.98183e-10)
(0.000513765 4.6589e-11 3.9999e-10)
(0.000513752 -6.60201e-11 -4.12721e-10)
(0.000513761 -8.36928e-11 3.32151e-10)
(0.000513749 7.02894e-11 -3.2172e-10)
(0.00051376 -1.65715e-10 2.98086e-10)
(0.000513747 1.69235e-10 -2.81221e-10)
(0.000513761 7.03639e-11 3.47416e-10)
(0.00051375 -3.23313e-11 -3.37573e-10)
(0.000513764 6.55734e-11 3.30113e-10)
(0.00051375 -5.6091e-11 -3.03543e-10)
(0.00051376 -6.89868e-11 2.38747e-10)
(0.000513749 8.74616e-11 -2.12887e-10)
(0.00051376 -6.04029e-12 2.56792e-10)
(0.000513752 8.04881e-12 -2.53477e-10)
(0.000513761 -2.582e-11 2.39634e-10)
(0.000513746 -2.57978e-11 -2.33911e-10)
(0.000513763 1.11426e-11 2.17695e-10)
(0.000513744 -5.96035e-11 -2.19353e-10)
(0.000513762 -2.79894e-10 1.46186e-10)
(0.000513745 2.82053e-10 -1.30312e-10)
(0.000513759 -4.10996e-11 1.68129e-10)
(0.000513748 -1.18818e-10 -1.90855e-10)
(0.000513758 -2.41064e-10 1.14834e-10)
(0.000513749 3.52529e-10 -7.95938e-11)
(0.000513756 7.08942e-11 1.56359e-10)
(0.000513751 -3.54035e-11 -1.48573e-10)
(0.000513753 3.65764e-11 1.38536e-10)
(0.000513752 -2.09929e-11 -1.34964e-10)
(0.000513753 4.27797e-11 1.24864e-10)
(0.000513751 -4.30151e-11 -1.44327e-10)
(0.000513752 8.15046e-11 1.73277e-10)
(0.000464441 6.41605e-06 1.22419e-05)
(0.000600497 2.35796e-07 4.42181e-07)
(0.000503795 -1.55006e-07 -3.05246e-07)
(0.000571524 1.09644e-07 2.14487e-07)
(0.000524001 -7.63605e-08 -1.5043e-07)
(0.000557377 5.31833e-08 1.05275e-07)
(0.000533866 -3.75344e-08 -7.39675e-08)
(0.000550512 2.69569e-08 5.15232e-08)
(0.000538604 -1.98457e-08 -3.58107e-08)
(0.000547192 1.53583e-08 2.5011e-08)
(0.000541067 -1.12926e-08 -1.68065e-08)
(0.000545335 8.48613e-09 1.11068e-08)
(0.000542513 -5.79053e-09 -6.82867e-09)
(0.000544252 3.54684e-09 3.914e-09)
(0.000543274 -2.22322e-09 -1.92194e-09)
(0.000543776 9.98336e-10 7.06214e-10)
(0.00054355 -4.17732e-10 -1.1631e-10)
(0.000543625 7.2793e-11 -2.72289e-10)
(0.000543598 -1.04221e-10 3.12564e-10)
(0.000543596 2.93343e-11 -3.97295e-10)
(0.000543604 1.13641e-11 3.98943e-10)
(0.00054359 -2.84328e-11 -4.08132e-10)
(0.0005436 -1.42524e-10 3.29452e-10)
(0.000543587 1.27061e-10 -3.16789e-10)
(0.0005436 -2.45746e-10 3.00954e-10)
(0.000543585 2.54216e-10 -2.86323e-10)
(0.0005436 1.15757e-11 3.45183e-10)
(0.000543588 9.47242e-12 -3.37881e-10)
(0.000543603 3.34751e-11 3.29304e-10)
(0.000543588 -2.53404e-11 -3.01823e-10)
(0.000543599 -9.26569e-11 2.3674e-10)
(0.000543588 1.02434e-10 -2.10356e-10)
(0.000543599 -1.22385e-11 2.54696e-10)
(0.000543591 9.99027e-12 -2.52616e-10)
(0.0005436 -2.84287e-11 2.40027e-10)
(0.000543584 -1.04659e-11 -2.32158e-10)
(0.000543603 -7.86501e-12 2.17457e-10)
(0.000543582 -4.25993e-11 -2.15146e-10)
(0.000543602 -3.34691e-10 1.58668e-10)
(0.000543583 3.5348e-10 -1.4522e-10)
(0.000543599 -8.41108e-11 1.7169e-10)
(0.000543586 -8.78456e-11 -1.84422e-10)
(0.000543598 -3.1883e-10 1.28898e-10)
(0.000543588 4.48225e-10 -1.02205e-10)
(0.000543595 3.76998e-11 1.54936e-10)
(0.000543589 -7.61777e-12 -1.48676e-10)
(0.000543592 1.90206e-11 1.37281e-10)
(0.00054359 -9.91913e-12 -1.33951e-10)
(0.000543591 3.74922e-11 1.22556e-10)
(0.00054359 -4.28904e-11 -1.42178e-10)
(0.00054359 8.09019e-11 1.71076e-10)
(0.000476585 2.16608e-06 1.21514e-05)
(0.00061632 8.01879e-08 4.41387e-07)
(0.000517138 -5.26225e-08 -3.04786e-07)
(0.000586635 3.72665e-08 2.14173e-07)
(0.000537863 -2.58994e-08 -1.50195e-07)
(0.000572127 1.80299e-08 1.05082e-07)
(0.000547978 -1.27246e-08 -7.38157e-08)
(0.000565084 9.09435e-09 5.14027e-08)
(0.000552848 -6.74848e-09 -3.57234e-08)
(0.000561664 5.33284e-09 2.49646e-08)
(0.00055539 -4.08437e-09 -1.67887e-08)
(0.000559751 3.35819e-09 1.10933e-08)
(0.000556876 -2.43331e-09 -6.82085e-09)
(0.000558641 1.64888e-09 3.91081e-09)
(0.000557651 -1.17347e-09 -1.91639e-09)
(0.000558157 5.64267e-10 7.11165e-10)
(0.00055793 -2.04921e-10 -1.18987e-10)
(0.000558005 4.83234e-11 -2.69998e-10)
(0.000557978 -1.26207e-10 3.08631e-10)
(0.000557976 6.89268e-11 -3.94615e-10)
(0.000557985 -1.70832e-11 3.9711e-10)
(0.000557969 4.8446e-12 -4.05871e-10)
(0.000557981 -1.84792e-10 3.2675e-10)
(0.000557967 1.70178e-10 -3.14252e-10)
(0.00055798 -3.02502e-10 3.0552e-10)
(0.000557965 3.14474e-10 -2.91713e-10)
(0.000557981 -4.40475e-11 3.44463e-10)
(0.000557969 4.28437e-11 -3.35598e-10)
(0.000557983 5.14729e-12 3.27497e-10)
(0.000557969 3.78212e-12 -3.00215e-10)
(0.000557979 -1.0601e-10 2.33143e-10)
(0.000557968 1.06793e-10 -2.06564e-10)
(0.00055798 -1.46933e-11 2.53019e-10)
(0.00055797 6.16932e-12 -2.51355e-10)
(0.000557981 -2.24966e-11 2.37816e-10)
(0.000557964 1.91408e-12 -2.29847e-10)
(0.000557983 -2.2226e-11 2.16683e-10)
(0.000557962 -2.54155e-11 -2.11839e-10)
(0.000557983 -3.60224e-10 1.71257e-10)
(0.000557963 3.95729e-10 -1.61487e-10)
(0.00055798 -1.17785e-10 1.76044e-10)
(0.000557966 -5.40777e-11 -1.7777e-10)
(0.000557978 -3.70491e-10 1.4369e-10)
(0.000557968 5.09412e-10 -1.26134e-10)
(0.000557975 4.40107e-12 1.5411e-10)
(0.00055797 1.76385e-11 -1.4939e-10)
(0.000557972 2.95734e-12 1.36815e-10)
(0.000557971 -1.29214e-12 -1.33387e-10)
(0.000557971 3.15135e-11 1.20926e-10)
(0.00055797 -4.28331e-11 -1.39477e-10)
(0.00055797 7.88189e-11 1.67828e-10)
(0.000476585 -2.16607e-06 1.21514e-05)
(0.00061632 -8.01512e-08 4.41382e-07)
(0.000517138 5.25465e-08 -3.04777e-07)
(0.000586635 -3.71579e-08 2.14165e-07)
(0.000537862 2.59836e-08 -1.50194e-07)
(0.000572128 -1.81219e-08 1.05086e-07)
(0.000547977 1.27907e-08 -7.38245e-08)
(0.000565085 -9.28692e-09 5.14119e-08)
(0.000552848 6.74515e-09 -3.57297e-08)
(0.000561664 -5.00218e-09 2.49675e-08)
(0.00055539 3.36955e-09 -1.6792e-08)
(0.00055975 -1.96617e-09 1.10818e-08)
(0.000556877 1.06368e-09 -6.80808e-09)
(0.000558641 -3.43e-10 3.90148e-09)
(0.000557651 -5.3328e-11 -1.9064e-09)
(0.000558157 9.29737e-11 7.12928e-10)
(0.00055793 2.03218e-11 -1.19925e-10)
(0.000558005 1.66608e-11 -2.67354e-10)
(0.000557978 -1.36754e-10 3.05426e-10)
(0.000557976 1.00305e-10 -3.92398e-10)
(0.000557985 -4.21701e-11 3.96331e-10)
(0.000557969 3.57314e-11 -4.04421e-10)
(0.000557981 -2.12712e-10 3.25839e-10)
(0.000557967 2.0103e-10 -3.1328e-10)
(0.00055798 -3.37225e-10 3.11026e-10)
(0.000557965 3.51099e-10 -2.98055e-10)
(0.00055798 -9.53746e-11 3.44308e-10)
(0.000557969 7.05107e-11 -3.34705e-10)
(0.000557983 -2.12037e-11 3.26364e-10)
(0.000557969 3.09809e-11 -2.98529e-10)
(0.000557979 -1.10383e-10 2.30093e-10)
(0.000557968 1.02286e-10 -2.03356e-10)
(0.00055798 -1.46712e-11 2.51112e-10)
(0.00055797 -2.61815e-13 -2.50289e-10)
(0.000557981 -1.23699e-11 2.3646e-10)
(0.000557964 1.22283e-11 -2.27733e-10)
(0.000557983 -3.3337e-11 2.16281e-10)
(0.000557962 -7.84596e-12 -2.08928e-10)
(0.000557983 -3.58654e-10 1.83745e-10)
(0.000557963 4.08874e-10 -1.77208e-10)
(0.00055798 -1.42007e-10 1.80755e-10)
(0.000557965 -1.85533e-11 -1.72139e-10)
(0.000557978 -3.954e-10 1.58221e-10)
(0.000557968 5.34834e-10 -1.49152e-10)
(0.000557975 -2.80518e-11 1.53864e-10)
(0.00055797 4.02175e-11 -1.50539e-10)
(0.000557972 -1.21339e-11 1.36856e-10)
(0.000557971 5.91186e-12 -1.3317e-10)
(0.000557971 2.42107e-11 1.19528e-10)
(0.00055797 -4.17008e-11 -1.36948e-10)
(0.00055797 7.48716e-11 1.64122e-10)
(0.000464441 -6.41603e-06 1.22419e-05)
(0.000600497 -2.35757e-07 4.42168e-07)
(0.000503795 1.54931e-07 -3.05221e-07)
(0.000571525 -1.09532e-07 2.14467e-07)
(0.000523998 7.64339e-08 -1.50428e-07)
(0.00055738 -5.32857e-08 1.05289e-07)
(0.000533862 3.76138e-08 -7.39926e-08)
(0.000550514 -2.71621e-08 5.15509e-08)
(0.000538604 1.98681e-08 -3.58301e-08)
(0.00054719 -1.5027e-08 2.50192e-08)
(0.00054107 1.06088e-08 -1.68162e-08)
(0.000545332 -7.14202e-09 1.10727e-08)
(0.000542516 4.46348e-09 -6.79023e-09)
(0.00054425 -2.29367e-09 3.88546e-09)
(0.000543274 1.05403e-09 -1.8919e-09)
(0.000543775 -3.74308e-10 7.11509e-10)
(0.00054355 2.32556e-10 -1.1934e-10)
(0.000543625 -1.57935e-11 -2.64816e-10)
(0.000543598 -1.44094e-10 3.03398e-10)
(0.000543596 1.29673e-10 -3.90613e-10)
(0.000543604 -7.09979e-11 3.96222e-10)
(0.000543589 6.6253e-11 -4.04094e-10)
(0.0005436 -2.30484e-10 3.27019e-10)
(0.000543587 2.21127e-10 -3.14259e-10)
(0.0005436 -3.51799e-10 3.17522e-10)
(0.000543585 3.66987e-10 -3.05317e-10)
(0.0005436 -1.41647e-10 3.44984e-10)
(0.000543588 9.98948e-11 -3.34873e-10)
(0.000543602 -5.10504e-11 3.25559e-10)
(0.000543588 5.82638e-11 -2.97015e-10)
(0.000543599 -1.11516e-10 2.27912e-10)
(0.000543587 9.46202e-11 -2.01127e-10)
(0.000543599 -1.55906e-11 2.49371e-10)
(0.00054359 -3.04817e-12 -2.49223e-10)
(0.0005436 -7.19502e-12 2.35591e-10)
(0.000543584 2.38089e-11 -2.2603e-10)
(0.000543603 -4.46081e-11 2.16319e-10)
(0.000543582 1.11139e-11 -2.0668e-10)
(0.000543602 -3.349e-10 1.95401e-10)
(0.000543583 3.94701e-10 -1.91513e-10)
(0.000543599 -1.57348e-10 1.85556e-10)
(0.000543586 1.85378e-11 -1.67852e-10)
(0.000543598 -3.94971e-10 1.71473e-10)
(0.000543588 5.25167e-10 -1.69819e-10)
(0.000543595 -5.87374e-11 1.54245e-10)
(0.000543589 6.02686e-11 -1.52083e-10)
(0.000543592 -2.66682e-11 1.37412e-10)
(0.00054359 1.31162e-11 -1.33338e-10)
(0.000543591 1.50598e-11 1.18508e-10)
(0.00054359 -3.68041e-11 -1.34727e-10)
(0.00054359 6.55785e-11 1.60125e-10)
(0.000439214 -1.04023e-05 1.24193e-05)
(0.000567654 -3.76475e-07 4.43415e-07)
(0.000476112 2.48508e-07 -3.0596e-07)
(0.00054017 -1.75491e-07 2.14999e-07)
(0.000495232 1.22442e-07 -1.50846e-07)
(0.000526778 -8.54231e-08 1.05643e-07)
(0.000504573 6.03319e-08 -7.42687e-08)
(0.000520282 -4.35252e-08 5.1763e-08)
(0.000509047 3.18656e-08 -3.59659e-08)
(0.000517158 -2.40982e-08 2.50661e-08)
(0.000511355 1.71419e-08 -1.68235e-08)
(0.000515415 -1.17836e-08 1.10403e-08)
(0.000512718 7.49625e-09 -6.75149e-09)
(0.000514388 -4.0469e-09 3.85573e-09)
(0.000513444 2.05036e-09 -1.86811e-09)
(0.000513932 -7.99177e-10 7.09673e-10)
(0.000513711 4.11465e-10 -1.18742e-10)
(0.000513786 -4.34052e-11 -2.65031e-10)
(0.000513758 -1.49069e-10 3.0102e-10)
(0.000513758 1.56502e-10 -3.88025e-10)
(0.000513765 -1.03702e-10 3.94483e-10)
(0.000513751 9.95015e-11 -4.07286e-10)
(0.000513761 -2.40605e-10 3.30087e-10)
(0.000513749 2.33716e-10 -3.19176e-10)
(0.00051376 -3.49253e-10 3.26466e-10)
(0.000513747 3.64094e-10 -3.13775e-10)
(0.000513761 -1.83206e-10 3.48423e-10)
(0.00051375 1.30629e-10 -3.32533e-10)
(0.000513763 -8.35927e-11 3.23011e-10)
(0.00051375 8.55247e-11 -2.96896e-10)
(0.00051376 -1.10403e-10 2.26325e-10)
(0.000513749 8.54235e-11 -2.0008e-10)
(0.00051376 -1.94363e-11 2.49859e-10)
(0.000513752 -8.12096e-13 -2.47379e-10)
(0.000513761 -8.18374e-12 2.32055e-10)
(0.000513746 3.74882e-11 -2.25203e-10)
(0.000513763 -5.70647e-11 2.166e-10)
(0.000513744 3.22295e-11 -2.06378e-10)
(0.000513762 -2.9328e-10 2.05649e-10)
(0.000513745 3.5659e-10 -2.04849e-10)
(0.000513759 -1.65311e-10 1.90823e-10)
(0.000513748 5.63765e-11 -1.6515e-10)
(0.000513758 -3.70734e-10 1.82493e-10)
(0.000513749 4.82717e-10 -1.87497e-10)
(0.000513756 -8.75109e-11 1.55548e-10)
(0.000513751 7.84675e-11 -1.54232e-10)
(0.000513753 -4.15879e-11 1.38886e-10)
(0.000513752 2.16424e-11 -1.34215e-10)
(0.000513753 3.14152e-12 1.18755e-10)
(0.000513751 -2.74237e-11 -1.32794e-10)
(0.000513752 5.09027e-11 1.55641e-10)
(0.000398775 -1.38971e-05 1.26686e-05)
(0.000515072 -4.88838e-07 4.44105e-07)
(0.000431828 3.24949e-07 -3.06353e-07)
(0.000489993 -2.29151e-07 2.15291e-07)
(0.000449205 1.59991e-07 -1.51085e-07)
(0.000477815 -1.11848e-07 1.0583e-07)
(0.000457703 7.9088e-08 -7.43886e-08)
(0.000471912 -5.70526e-08 5.1818e-08)
(0.000461751 4.171e-08 -3.59546e-08)
(0.0004691 -3.12874e-08 2.49899e-08)
(0.000463815 2.22241e-08 -1.67361e-08)
(0.000467538 -1.52789e-08 1.09392e-08)
(0.000465043 9.71915e-09 -6.66633e-09)
(0.000466603 -5.332e-09 3.79687e-09)
(0.000465715 2.76476e-09 -1.82444e-09)
(0.000466179 -1.11518e-09 6.94162e-10)
(0.000465967 5.21985e-10 -1.06294e-10)
(0.000466041 -4.9294e-11 -2.74153e-10)
(0.000466012 -1.53933e-10 3.06171e-10)
(0.000466014 1.80962e-10 -3.92166e-10)
(0.000466019 -1.40245e-10 3.98484e-10)
(0.000466008 1.4683e-10 -4.16009e-10)
(0.000466015 -2.51223e-10 3.38413e-10)
(0.000466005 2.50995e-10 -3.29883e-10)
(0.000466015 -3.42474e-10 3.39424e-10)
(0.000466003 3.52258e-10 -3.25839e-10)
(0.000466015 -2.26927e-10 3.55953e-10)
(0.000466005 1.59568e-10 -3.33668e-10)
(0.000466018 -1.16857e-10 3.24931e-10)
(0.000466005 1.16193e-10 -3.02154e-10)
(0.000466015 -1.09514e-10 2.30973e-10)
(0.000466004 7.9029e-11 -2.05652e-10)
(0.000466015 -3.3023e-11 2.56145e-10)
(0.000466008 8.93492e-12 -2.50581e-10)
(0.000466014 -1.39893e-11 2.32606e-10)
(0.000466003 5.66346e-11 -2.28845e-10)
(0.000466017 -7.34515e-11 2.20127e-10)
(0.000466001 5.9621e-11 -2.09879e-10)
(0.000466016 -2.43439e-10 2.16149e-10)
(0.000466002 3.05188e-10 -2.17706e-10)
(0.000466014 -1.70998e-10 1.96728e-10)
(0.000466004 9.51542e-11 -1.64913e-10)
(0.000466013 -3.2755e-10 1.92283e-10)
(0.000466005 4.15061e-10 -2.02202e-10)
(0.000466011 -1.15854e-10 1.57665e-10)
(0.000466006 9.73227e-11 -1.57061e-10)
(0.000466009 -6.00803e-11 1.41644e-10)
(0.000466007 3.4809e-11 -1.36666e-10)
(0.000466008 -1.50447e-11 1.21073e-10)
(0.000466007 -1.27321e-11 -1.33078e-10)
(0.000466007 3.54297e-11 1.53878e-10)
(0.000339059 -1.64346e-05 1.29554e-05)
(0.000437567 -5.43423e-07 4.39553e-07)
(0.000366622 3.64491e-07 -3.03139e-07)
(0.00041608 -2.56673e-07 2.12926e-07)
(0.000381416 1.79451e-07 -1.49376e-07)
(0.000405704 -1.25771e-07 1.04506e-07)
(0.000388661 8.90319e-08 -7.33849e-08)
(0.000400679 -6.41031e-08 5.10061e-08)
(0.000392088 4.65997e-08 -3.53196e-08)
(0.000398316 -3.43311e-08 2.45166e-08)
(0.000393806 2.41352e-08 -1.63805e-08)
(0.000397011 -1.63294e-08 1.06732e-08)
(0.000394838 1.02209e-08 -6.47883e-09)
(0.000396214 -5.59694e-09 3.67049e-09)
(0.000395424 2.86663e-09 -1.74277e-09)
(0.000395843 -1.14591e-09 6.26791e-10)
(0.000395649 4.54688e-10 -5.63239e-11)
(0.00039572 3.16693e-12 -2.88755e-10)
(0.00039569 -1.94555e-10 3.3535e-10)
(0.000395694 2.33025e-10 -4.16512e-10)
(0.000395697 -2.13513e-10 4.24879e-10)
(0.000395688 2.23212e-10 -4.20885e-10)
(0.000395693 -2.90089e-10 3.57874e-10)
(0.000395686 2.93931e-10 -3.42083e-10)
(0.000395693 -3.57302e-10 3.52221e-10)
(0.000395684 3.59305e-10 -3.42525e-10)
(0.000395694 -2.78283e-10 3.59326e-10)
(0.000395685 2.13791e-10 -3.57788e-10)
(0.000395696 -1.74622e-10 3.4506e-10)
(0.000395685 1.63062e-10 -3.11636e-10)
(0.000395694 -1.36114e-10 2.52423e-10)
(0.000395685 1.03327e-10 -2.26354e-10)
(0.000395693 -7.36331e-11 2.64664e-10)
(0.000395688 5.42095e-11 -2.68395e-10)
(0.000395693 -5.75603e-11 2.57571e-10)
(0.000395684 9.65342e-11 -2.39151e-10)
(0.000395695 -1.09748e-10 2.31451e-10)
(0.000395682 1.02402e-10 -2.14971e-10)
(0.000395694 -2.12442e-10 2.29025e-10)
(0.000395684 2.60027e-10 -2.25171e-10)
(0.000395692 -1.80769e-10 1.99927e-10)
(0.000395685 1.35989e-10 -1.67928e-10)
(0.000395692 -2.81949e-10 2.03378e-10)
(0.000395686 3.38098e-10 -2.11678e-10)
(0.000395691 -1.42887e-10 1.58509e-10)
(0.000395686 1.1958e-10 -1.58763e-10)
(0.000395689 -8.65218e-11 1.43887e-10)
(0.000395687 6.04466e-11 -1.40427e-10)
(0.000395689 -4.40843e-11 1.22828e-10)
(0.000395687 1.70446e-11 -1.38547e-10)
(0.000395687 2.49721e-12 1.66138e-10)
(0.000251944 -1.59823e-05 1.27186e-05)
(0.000324769 -4.63602e-07 4.01078e-07)
(0.000271865 3.13596e-07 -2.76482e-07)
(0.000308613 -2.20563e-07 1.93991e-07)
(0.000282873 1.54428e-07 -1.36001e-07)
(0.000300885 -1.08463e-07 9.51756e-08)
(0.000288275 7.68236e-08 -6.69007e-08)
(0.000297145 -5.51269e-08 4.66889e-08)
(0.000290811 3.9754e-08 -3.24859e-08)
(0.000295413 -2.84924e-08 2.2582e-08)
(0.00029205 1.96776e-08 -1.50796e-08)
(0.000294467 -1.28532e-08 9.74733e-09)
(0.000292804 7.72904e-09 -5.87314e-09)
(0.000293874 -4.11693e-09 3.27132e-09)
(0.000293252 1.98498e-09 -1.51782e-09)
(0.000293589 -7.12032e-10 5.19478e-10)
(0.000293431 1.34291e-10 -2.02616e-11)
(0.000293491 1.02905e-10 -2.63265e-10)
(0.000293465 -2.58724e-10 3.21081e-10)
(0.00029347 2.83583e-10 -3.84287e-10)
(0.00029347 -2.92533e-10 3.91438e-10)
(0.000293465 2.75141e-10 -3.78337e-10)
(0.000293468 -3.19326e-10 3.38668e-10)
(0.000293463 3.18123e-10 -3.21986e-10)
(0.000293468 -3.56455e-10 3.26124e-10)
(0.000293461 3.53617e-10 -3.19906e-10)
(0.000293469 -2.88707e-10 3.29733e-10)
(0.000293461 2.66976e-10 -3.35635e-10)
(0.00029347 -2.31937e-10 3.17526e-10)
(0.000293461 1.9634e-10 -2.83334e-10)
(0.000293469 -1.76793e-10 2.40071e-10)
(0.000293461 1.48158e-10 -2.16124e-10)
(0.000293468 -1.19721e-10 2.35888e-10)
(0.000293464 1.22282e-10 -2.4193e-10)
(0.000293467 -1.31223e-10 2.4177e-10)
(0.000293462 1.36851e-10 -2.2104e-10)
(0.000293468 -1.45743e-10 2.14405e-10)
(0.000293461 1.36882e-10 -1.96223e-10)
(0.000293469 -1.85277e-10 2.05894e-10)
(0.000293462 2.01378e-10 -1.98208e-10)
(0.000293467 -1.68159e-10 1.82223e-10)
(0.000293463 1.56254e-10 -1.60692e-10)
(0.000293468 -2.15728e-10 1.8564e-10)
(0.000293463 2.30393e-10 -1.87854e-10)
(0.000293467 -1.44395e-10 1.4754e-10)
(0.000293463 1.22405e-10 -1.44295e-10)
(0.000293466 -1.01498e-10 1.30971e-10)
(0.000293463 8.23439e-11 -1.27169e-10)
(0.000293465 -6.89453e-11 1.11439e-10)
(0.000293463 5.07553e-11 -1.22931e-10)
(0.000293464 -4.23668e-11 1.48243e-10)
(0.000118289 -7.82826e-06 7.82826e-06)
(0.000152244 -2.21269e-07 2.2127e-07)
(0.000127244 1.52695e-07 -1.52706e-07)
(0.000144493 -1.06978e-07 1.06965e-07)
(0.000132423 7.49869e-08 -7.49523e-08)
(0.000140852 -5.27227e-08 5.26789e-08)
(0.00013497 3.73086e-08 -3.72953e-08)
(0.000139094 -2.66039e-08 2.65551e-08)
(0.00013615 1.90091e-08 -1.89358e-08)
(0.0001383 -1.33749e-08 1.34815e-08)
(0.000136709 9.16522e-09 -9.18421e-09)
(0.00013787 -5.91961e-09 6.023e-09)
(0.000137057 3.54311e-09 -3.68902e-09)
(0.00013759 -1.93299e-09 2.03776e-09)
(0.000137276 9.14369e-10 -9.95028e-10)
(0.000137449 -3.41348e-10 3.89347e-10)
(0.000137367 4.32181e-11 -1.05618e-10)
(0.000137399 6.52596e-11 -7.18184e-11)
(0.000137384 -1.35461e-10 1.14662e-10)
(0.000137388 1.55482e-10 -1.43188e-10)
(0.000137387 -1.63714e-10 1.45599e-10)
(0.000137385 1.57431e-10 -1.55467e-10)
(0.000137386 -1.70566e-10 1.44505e-10)
(0.000137384 1.70871e-10 -1.45147e-10)
(0.000137386 -1.80382e-10 1.38101e-10)
(0.000137383 1.77757e-10 -1.33325e-10)
(0.000137386 -1.51747e-10 1.51365e-10)
(0.000137383 1.4757e-10 -1.33431e-10)
(0.000137387 -1.31328e-10 1.21167e-10)
(0.000137383 1.11301e-10 -1.12882e-10)
(0.000137387 -1.03792e-10 8.88252e-11)
(0.000137383 9.10042e-11 -7.68275e-11)
(0.000137386 -7.81424e-11 8.16358e-11)
(0.000137385 8.1123e-11 -7.56362e-11)
(0.000137385 -8.53587e-11 7.89095e-11)
(0.000137384 8.21461e-11 -8.71228e-11)
(0.000137386 -8.48266e-11 8.41908e-11)
(0.000137383 7.97493e-11 -8.21542e-11)
(0.000137386 -9.76776e-11 6.97184e-11)
(0.000137384 9.94569e-11 -7.21025e-11)
(0.000137385 -8.86476e-11 8.19343e-11)
(0.000137384 8.31388e-11 -8.13188e-11)
(0.000137386 -1.03326e-10 7.60487e-11)
(0.000137384 1.05977e-10 -7.48915e-11)
(0.000137386 -7.51752e-11 7.4412e-11)
(0.000137383 6.72138e-11 -6.65545e-11)
(0.000137385 -5.79731e-11 5.75485e-11)
(0.000137384 5.04007e-11 -5.03826e-11)
(0.000137385 -4.21498e-11 4.46937e-11)
(0.000137384 3.78441e-11 -4.17501e-11)
(0.000137384 -3.38414e-11 4.01472e-11)
(0.000251944 1.27187e-05 1.59823e-05)
(0.000324769 4.01123e-07 4.63608e-07)
(0.000271866 -2.76555e-07 -3.13603e-07)
(0.000308612 1.94074e-07 2.20577e-07)
(0.000282878 -1.36046e-07 -1.54399e-07)
(0.000300879 9.51431e-08 1.08347e-07)
(0.000288282 -6.68456e-08 -7.67189e-08)
(0.00029714 4.65767e-08 5.49503e-08)
(0.000290812 -3.24161e-08 -3.95888e-08)
(0.000295416 2.25052e-08 2.87155e-08)
(0.000292046 -1.50481e-08 -1.98827e-08)
(0.000294473 9.82175e-09 1.33153e-08)
(0.0002928 -5.92434e-09 -8.33523e-09)
(0.000293878 3.31854e-09 4.64433e-09)
(0.00029325 -1.59908e-09 -2.3089e-09)
(0.000293591 5.10014e-10 8.95093e-10)
(0.000293431 1.12844e-11 -2.7179e-10)
(0.000293491 -2.84917e-10 -1.10417e-10)
(0.000293465 3.58357e-10 1.90787e-10)
(0.00029347 -4.07117e-10 -2.48883e-10)
(0.000293471 4.11751e-10 2.54281e-10)
(0.000293465 -3.90066e-10 -2.67626e-10)
(0.000293468 3.38904e-10 2.5695e-10)
(0.000293464 -3.21292e-10 -2.5556e-10)
(0.000293468 2.82578e-10 2.61524e-10)
(0.000293461 -2.79124e-10 -2.52866e-10)
(0.000293469 3.27197e-10 2.71371e-10)
(0.000293462 -3.5763e-10 -2.29814e-10)
(0.000293471 3.3802e-10 2.10817e-10)
(0.000293461 -2.98603e-10 -1.87421e-10)
(0.000293469 2.64689e-10 1.36811e-10)
(0.000293462 -2.44679e-10 -1.09455e-10)
(0.000293468 2.52102e-10 1.10839e-10)
(0.000293465 -2.58645e-10 -1.1128e-10)
(0.000293467 2.65841e-10 1.13283e-10)
(0.000293462 -2.39176e-10 -1.38453e-10)
(0.000293468 2.1967e-10 1.42276e-10)
(0.000293461 -2.20528e-10 -1.4288e-10)
(0.000293469 1.03259e-10 1.34836e-10)
(0.000293462 -6.30226e-11 -1.51599e-10)
(0.000293467 1.38642e-10 1.63463e-10)
(0.000293463 -2.09567e-10 -1.71702e-10)
(0.000293468 5.56902e-11 1.67021e-10)
(0.000293463 1.84218e-11 -1.6328e-10)