/*--------------------------------*- C++ -*----------------------------------*\
  =========                 |
  \\      /  F ield         | OpenFOAM: The Open Source CFD Toolbox
   \\    /   O peration     | Website:  https://openfoam.org
    \\  /    A nd           | Version:  13
     \\/     M anipulation  |
\*---------------------------------------------------------------------------*/
FoamFile
{
    format      ascii;
    class       volScalarField;
    location    "25";
    object      p;
}
// * * * * * * * * * * * * * * * * * * * * * * * * * * * * * * * * * * * * * //

dimensions      [0 2 -2 0 0 0 0];

internalField   nonuniform List<scalar> 
1515
(
0.821729
5.4657
12.3697
6.71823
11.181
7.31297
3.81338
9.31279
11.2904
11.8792
11.8115
9.01034
5.47869
8.90222
4.20261
2.47533
2.00481
2.26079
1.43441
7.86123
8.30172
2.32121
12.3799
12.4266
1.3804
2.47589
1.44126
0.78719
1.93895
11.8281
2.54687
4.19424
11.2615
1.95519
0.892864
10.1321
3.68973
2.29039
0.879953
6.11402
10.1244
8.90497
8.86969
0.83735
10.0463
11.232
10.9944
9.45319
6.08044
8.36661
11.1783
1.90923
9.04388
4.79003
8.88779
2.2721
3.78801
10.0786
11.2106
4.27021
7.82323
6.6628
3.84666
8.9312
10.1125
7.15697
7.20073
0.813183
0.809807
1.08248
7.14974
8.43339
11.2073
10.1773
2.01172
3.74434
0.180068
4.24913
8.41752
4.2625
3.74817
4.91081
7.87838
4.19572
6.07213
10.1616
9.59151
6.36818
5.34701
5.46283
9.25229
1.48089
4.91965
11.1867
9.51111
1.33881
4.21009
4.89783
1.37173
10.9473
3.6778
10.9786
11.0089
11.8251
3.75622
10.1079
11.1846
0.198137
0.323426
10.0635
0.78082
0.765835
0.197621
4.21905
10.7577
0.212621
10.9308
4.85725
6.67578
0.306992
6.65959
10.96
11.8661
2.63199
6.08444
3.64884
3.65157
8.98548
1.36853
6.32247
7.2286
10.7287
2.05128
7.84995
1.08244
9.62058
5.36514
1.11382
1.91318
2.30648
1.42521
11.1639
5.41192
8.99722
4.90651
8.95875
5.38232
9.31258
0.256704
3.85634
7.22465
4.81381
10.3621
0.875858
0.825383
8.88723
4.74336
0.244616
0.766385
3.65726
9.24505
3.69335
3.8161
12.3487
3.61628
1.06594
8.98836
3.8796
5.40855
0.834541
6.05913
3.80059
5.34703
9.26372
5.43328
11.3199
4.25731
0.299415
11.2644
10.6779
4.89461
11.2864
5.38593
11.1457
6.33386
1.31772
1.34274
4.75647
4.84102
8.37516
11.2774
9.26367
0.266385
4.86494
4.95325
1.33108
3.8622
9.56177
10.9787
11.1457
11.1633
2.01838
3.86212
9.61651
9.53722
0.789269
11.2348
2.45778
0.32053
8.91066
6.67148
8.36324
6.32241
12.3075
5.49166
10.6751
0.866978
0.241431
12.3951
3.84728
3.63384
9.28192
1.6419
10.1643
13.0182
4.16258
1.85519
1.90152
10.1727
1.88817
10.7449
10.9473
12.3474
1.12961
0.888894
2.59847
8.95593
9.298
0.221048
2.27217
6.35213
2.49308
9.60339
1.89632
2.60244
0.218813
10.96
10.7406
1.09518
11.0092
8.90857
1.94216
2.58535
0.18002
13.0157
7.2036
1.28483
8.30169
1.32591
13.0334
8.33425
0.353247
3.68118
1.27122
10.7319
1.4509
8.31982
1.31491
10.9307
2.32088
9.60777
0.864097
4.27414
6.05604
8.86966
7.80668
1.14421
4.15658
0.215511
5.38801
11.2733
10.6913
2.26072
2.52268
9.25234
1.4479
10.0855
8.4204
1.06588
11.2192
10.7537
12.4411
8.31926
10.087
10.0807
8.39079
4.29988
6.31515
7.25754
0.297942
8.337
6.31505
1.96393
1.42705
7.85305
2.30627
0.313689
1.6248
11.8709
1.84155
1.39755
6.02633
0.253362
7.17061
12.3259
9.50714
12.3253
1.14442
8.3427
9.48604
3.73225
8.34061
8.37882
1.12947
8.38797
7.10307
12.4256
3.65517
2.54404
3.84122
3.78887
10.9942
7.16401
7.87437
7.27937
2.51931
8.4759
12.3864
8.42928
5.4361
12.308
3.61625
12.3938
9.56578
10.1897
1.38476
2.53122
11.2228
4.86888
7.17353
11.8579
7.86604
1.09521
7.26622
2.49032
10.1858
1.3935
8.44636
7.27053
7.28343
4.85204
2.45776
6.68868
1.11376
5.42046
4.8109
2.25338
8.94311
6.3338
6.35203
5.37957
7.21175
12.9837
9.00136
0.74829
4.8043
2.26376
3.70246
4.78821
9.54024
9.65007
3.70528
9.29786
8.44239
2.53489
2.57359
10.7029
9.49934
5.36458
9.55356
9.28198
2.57648
7.90791
11.9128
3.63439
7.11618
4.84389
7.14793
10.1186
1.95081
4.79726
10.6861
4.30309
1.96799
1.88529
2.02137
4.21623
10.2194
6.36796
2.29047
6.68462
7.25433
9.0143
3.76087
5.42412
1.99747
4.31607
11.8832
6.06729
7.21696
7.82025
4.32491
2.49876
10.7874
10.3792
5.47457
3.88037
10.699
9.48319
6.62992
0.922571
12.3404
1.99562
10.0641
10.1338
0.748262
9.24493
3.80283
5.5212
0.783576
4.32897
12.3423
6.38267
9.4396
11.8548
9.54887
2.58947
4.24632
6.38299
9.49422
12.3745
9.59476
8.94677
2.49668
4.92371
8.93456
4.35852
10.0457
4.31177
3.73507
0.269268
5.48769
0.0627894
0.00652664
0.00532195
0.0277636
0.0209522
0.0252441
13.1044
13.0813
13.0666
13.0665
13.1072
13.0857
13.0436
13.0281
13.0386
12.9854
6.40138
9.33113
12.9698
12.9627
12.9303
11.0278
2.16459
12.9086
12.8766
6.22622
6.42385
12.8548
12.823
9.1561
9.35376
12.8012
12.7475
12.7693
11.0504
0.0473326
12.6938
12.7156
6.24957
9.17945
0.0673887
0.106686
12.6401
12.6619
12.6082
0.462292
0.675393
12.5864
12.5545
2.7398
2.95452
12.5327
12.5009
3.16924
3.38396
12.4791
12.4472
12.4332
12.4495
12.292
12.2616
12.302
3.98094
4.6273
12.2018
5.06104
5.27415
12.2344
12.1783
12.1484
5.68268
5.89734
12.1264
12.0947
6.42246
6.4448
12.0729
12.0411
6.55541
6.98701
12.0193
11.9874
7.42075
7.63717
11.9656
11.9112
11.9337
11.9272
11.8023
11.8041
11.7463
11.8184
11.7707
8.06939
8.69105
11.7166
9.35144
9.37411
11.6946
11.6629
9.75787
9.97315
11.6411
11.6093
10.5709
11.0489
11.5875
11.5556
11.0696
11.5888
11.5338
11.4801
11.5019
12.0206
12.6414
11.4264
11.4483
12.8561
6.26941
9.19929
0.0782571
11.3727
11.3946
11.3408
11.3184
11.3268
11.1309
11.0753
11.0974
0.408138
1.20574
11.1397
1.53402
2.10555
2.38155
3.92408
4.41265
5.00738
10.9117
6.16766
6.77236
10.8991
10.8632
7.96206
8.53006
10.8392
10.8075
10.7858
10.7947
10.6231
10.6479
9.09753
9.70393
10.6451
10.8399
11.3741
10.5696
10.5914
10.5377
12.2589
0.431458
10.516
10.4841
0.646192
1.2336
10.4625
10.4307
2.70898
2.92369
10.4114
10.3773
3.13841
3.35312
10.3843
10.3446
3.57011
3.94944
10.3298
10.2712
10.2959
4.59657
5.03021
10.2179
10.2395
10.2339
10.0313
9.99722
5.24494
5.65185
10.0401
9.97258
9.94087
5.86663
6.52467
9.91993
9.86607
9.88782
6.95628
7.38994
9.81165
9.83416
7.60764
8.03856
8.25554
8.66022
9.75465
9.77968
9.72498
9.72892
9.94394
9.70105
9.67094
9.64825
9.6573
9.43066
9.43211
9.3773
9.39908
10.5401
11.5579
11.7747
11.9897
12.2065
12.6106
12.8253
0.515952
9.18008
0.56963
0.623409
9.25531
9.25542
9.11938
0.975031
1.04334
9.09592
9.06406
9.04229
9.05082
8.85481
8.82089
1.60158
1.66928
8.86383
8.79623
8.76452
1.7261
1.77946
8.74359
8.71149
2.16307
2.68614
8.68977
8.6579
2.79348
2.84716
8.63609
8.58241
8.60421
2.90084
3.0082
8.52871
8.55054
3.06188
3.11555
8.47432
8.4968
8.48277
8.28684
8.2529
3.22291
3.2766
8.29588
8.22825
8.17562
8.19654
3.33027
3.43763
8.12178
8.14351
3.49141
3.54339
4.0347
4.08839
8.06811
8.08991
8.03623
4.14207
4.4663
8.01443
7.98254
4.51998
4.57365
7.96072
7.92881
7.90631
7.91476
7.7975
7.7993
7.74151
7.81356
7.76583
4.6807
5.11471
7.68969
7.71178
5.16839
5.22216
5.57536
5.629
7.63551
7.65803
7.60358
5.73635
5.79003
7.57855
7.54887
5.84369
5.95062
7.52498
7.4949
6.00538
6.22467
7.47291
7.44125
6.40068
6.50167
7.41943
7.38758
6.60883
6.82601
7.36574
7.31133
7.33384
7.3274
6.87969
6.93336
7.0404
7.0912
7.06149
7.0944
7.3671
7.03759
7.00752
7.47439
7.52779
6.98552
6.95386
7.58176
7.69128
6.93205
6.8784
6.9002
7.74454
8.01571
6.82472
6.84652
8.12307
8.17684
8.22882
8.58371
6.77101
6.79284
6.7391
6.71659
6.72505
6.60603
8.63738
8.74482
6.61702
6.63384
6.57595
8.79681
9.15453
6.55398
6.52234
9.33067
9.81329
6.50067
6.44963
6.46894
9.86742
9.92116
10.2719
10.3388
10.4066
10.4635
10.5172
10.6245
6.2502
10.9081
11.0271
6.32544
6.32554
6.18951
11.4277
11.4814
6.16605
6.13419
6.1124
6.12094
6.02931
6.00358
11.5351
11.6424
6.01964
5.9476
5.97191
11.6961
11.7494
11.9669
12.0742
5.89582
5.91788
5.86419
12.1279
12.1813
5.84238
5.81054
12.2336
12.534
5.78874
5.75686
12.5877
12.6951
5.73506
5.70319
12.7488
12.8024
5.68139
5.64952
12.9098
12.9637
5.62771
5.57401
5.59584
0.12115
0.0757136
5.51962
5.5421
5.53565
5.33216
5.29823
0.159092
0.361462
5.34118
5.27358
5.24187
0.422584
0.476813
5.22094
5.16711
5.18883
0.530479
0.584121
5.11342
5.13523
0.638017
0.689423
0.727316
1.02743
5.05975
5.08155
5.02786
0.988979
1.18539
5.00603
4.97412
4.95162
4.96008
4.73149
4.73469
4.67788
4.70178
1.22101
1.26231
1.48947
1.54796
4.62581
4.64781
4.59415
1.58639
1.62556
4.57234
4.54049
1.68595
1.74046
4.51869
4.48681
1.79252
1.83252
4.46501
4.43313
2.05948
2.11999
4.4113
4.37939
4.35688
4.36534
2.18856
2.16258
2.36241
4.14859
4.10892
2.39781
2.43684
4.08711
4.05524
2.70066
2.75433
4.03347
4.00162
2.80801
2.86169
3.97997
3.94821
2.91537
2.96905
3.92889
3.90178
3.89477
3.60141
3.56748
3.02273
3.07641
3.61044
3.54282
3.49018
3.51111
3.13009
3.18377
3.43635
3.45808
3.23745
3.29113
3.3448
3.39848
3.38267
3.40448
3.35079
3.45213
3.506
3.32899
3.29711
3.55743
3.59531
3.27531
3.24343
3.90311
3.94079
3.22163
3.18975
3.99549
4.04924
3.16795
3.13607
4.10293
4.14077
3.11427
3.06059
3.08239
4.38182
4.42717
3.00691
3.02872
4.48083
4.5345
4.58815
4.64166
2.95323
2.97504
2.92135
4.69406
4.74772
2.89955
2.86767
4.97656
5.0219
2.84587
2.814
5.07557
5.12924
2.79219
2.76031
5.18288
5.23677
2.73851
2.70663
5.28818
5.32606
2.6848
2.63041
2.65289
2.64643
2.44292
2.40937
5.58987
5.64353
2.45183
2.38732
2.35343
5.69721
5.75088
2.36092
2.33985
2.26385
2.25347
2.13981
2.20777
5.80455
5.85819
5.91167
5.96368
2.10372
2.12782
2.07185
2.04818
2.06437
1.84857
1.77649
1.8008
6.01276
6.13744
1.83428
1.7249
1.74681
6.18216
6.22422
6.20146
6.46152
1.67406
1.69339
1.63996
6.41549
6.51619
1.64697
1.60732
6.56979
6.62221
1.59246
1.55848
6.74153
6.78688
1.53315
1.50139
1.47785
1.494
1.27806
1.23072
6.84054
6.89421
1.26375
1.20893
1.17694
6.94786
7.00137
1.18307
1.16274
1.04694
7.05377
7.10743
1.0343
0.974391
0.998356
7.38161
7.43525
0.921048
0.94271
0.937101
0.73341
0.699465
7.48876
7.54116
0.742475
0.674833
0.643122
7.59475
7.65157
0.622182
0.568353
0.590071
7.7056
7.75759
0.51466
0.536473
7.93123
7.97658
8.03024
8.08392
0.460949
0.482777
0.429037
8.13756
8.19144
0.40655
0.374607
0.350212
0.366264
0.165189
0.174209
0.106949
0.13129
8.24286
8.28074
8.49923
8.54457
8.59823
8.6519
8.70554
12.9325
8.75942
12.8789
8.81084
8.84871
9.06731
12.7716
9.11204
12.7179
9.15411
12.6642
9.13136
9.38938
9.34532
12.5569
9.4464
12.5032
9.67385
12.293
12.2484
9.71728
9.76655
12.1513
9.82771
12.0972
9.88189
12.0434
9.93576
9.98719
10.025
11.9361
10.3237
10.2859
11.7195
10.3629
11.6654
10.4233
11.6116
10.478
10.5317
10.5854
11.5043
10.6389
11.4506
10.8107
11.3969
10.8538
11.3433
11.1302
11.0988
10.8922
11.0439
11.0858
11.0414
10.8983
10.9115
10.8667
11.1248
10.8019
11.3344
10.5938
11.3886
11.4423
11.4959
10.4864
11.5496
10.432
11.6033
10.3856
11.6569
10.3447
11.7104
10.3292
10.2986
11.7624
10.2426
10.0303
9.99984
11.9814
12.0351
12.0887
9.89019
12.1422
9.83658
12.1944
9.78374
12.2461
12.2868
12.4803
9.66434
9.45601
9.40196
12.4949
9.34818
12.5486
12.6022
12.6559
9.12374
12.7096
9.05832
8.85413
8.82352
12.7633
8.76759
12.817
8.71384
12.8707
12.9243
12.9785
8.60655
0.0576882
8.55288
0.0314479
8.49034
8.28615
0.11856
0.414993
8.19961
0.468742
8.14586
0.522442
8.09223
0.57612
0.630318
0.686707
7.98489
0.929852
7.92235
7.76982
0.986102
7.71468
1.21768
7.66056
1.54571
1.67951
1.73327
7.5528
1.78769
7.49772
2.11671
7.44366
2.16182
2.20758
2.39671
7.33627
2.63885
7.12024
7.06542
2.69259
7.01033
2.74628
2.79996
2.85364
6.90254
2.90732
6.84886
2.961
6.79519
3.01468
6.73266
3.06836
6.57875
3.12204
3.17572
3.2294
6.47017
3.28308
6.4174
3.33676
3.39045
3.44413
6.19387
3.49831
6.12845
3.55471
5.9759
3.93426
5.92076
3.98762
4.04121
4.09489
5.81288
4.41909
5.7592
4.47278
5.70552
4.52646
4.58017
4.63418
5.59818
4.68888
5.54453
5.33147
5.30087
5.01383
5.06752
5.12121
5.19118
5.17488
5.13755
5.22907
5.08388
5.28547
5.52807
5.5818
4.96768
4.76053
4.70571
5.63548
4.65062
5.68916
5.74283
5.79651
4.54283
5.85022
4.48915
5.90431
4.43548
5.95881
4.37295
6.1784
4.16499
4.11126
6.22347
4.05757
6.26922
4.00386
6.455
6.50838
6.56232
3.89668
3.60072
6.77881
6.83249
3.51418
6.88617
3.46043
6.93988
3.4068
6.99389
7.04858
7.3198
3.29944
7.37355
3.24576
7.42726
3.19208
7.48127
7.53598
7.59044
3.08472
7.64405
3.03105
7.69821
2.97737
7.75272
7.96851
8.0222
2.87001
8.07589
2.81633
8.12956
2.76265
8.18375
8.24014
8.53651
2.65531
2.44224
2.41079
8.59019
2.35597
2.33917
2.18793
8.64388
2.13227
8.69755
2.07654
1.85809
1.80478
8.75172
1.7496
8.80813
1.69472
9.10826
1.64831
9.15335
9.19909
1.59184
1.60739
1.56121
9.38605
1.50608
1.28764
9.71208
9.77084
1.17981
1.16228
1.04668
9.82013
1.03349
1.00184
9.87387
0.94585
0.732723
0.702105
9.92807
9.98445
10.2267
0.592426
10.2832
0.538793
10.4168
0.485122
10.4701
10.5237
10.5774
0.3786
0.16449
0.133822
10.6314
10.8509
12.9163
12.8626
12.8089
12.7552
12.7016
12.6479
12.5942
12.5405
12.4868
11.0847
11.3805
12.1899
12.1349
12.0808
12.0271
11.9734
11.9196
11.7576
11.7031
11.649
11.5953
11.5416
11.4879
11.4342
)
;

boundaryField
{
    inlet
    {
        type            zeroGradient;
    }
    Walls
    {
        type            zeroGradient;
    }
    outlet
    {
        type            fixedValue;
        value           uniform 0;
    }
}


// ************************************************************************* //
