/*--------------------------------*- C++ -*----------------------------------*\
  =========                 |
  \\      /  F ield         | OpenFOAM: The Open Source CFD Toolbox
   \\    /   O peration     | Website:  https://openfoam.org
    \\  /    A nd           | Version:  13
     \\/     M anipulation  |
\*---------------------------------------------------------------------------*/
FoamFile
{
    format      ascii;
    class       surfaceScalarField;
    location    "25";
    object      phi;
}
// * * * * * * * * * * * * * * * * * * * * * * * * * * * * * * * * * * * * * //

dimensions      [0 3 -1 0 0 0 0];

internalField   nonuniform List<scalar> 
2028
(
3.08343e-11
8.00399e-10
-8.31253e-10
-8.36297e-10
8.36281e-10
8.98119e-10
-8.98105e-10
8.29722e-10
-8.29707e-10
-8.26558e-10
8.26565e-10
8.29672e-10
-8.29661e-10
8.97593e-10
-8.97539e-10
-2.2631e-12
8.3181e-10
-8.29553e-10
-8.30306e-10
8.46293e-10
-1.59731e-11
8.36608e-10
-8.36627e-10
1.29663e-11
-8.34255e-10
8.21308e-10
8.36106e-10
-8.36143e-10
9.9529e-12
-8.46245e-10
7.67374e-10
-7.67369e-10
8.19147e-10
1.41314e-11
-8.33247e-10
-3.74049e-12
-8.26722e-10
8.30425e-10
-8.33868e-10
1.27542e-11
8.21186e-10
-8.33606e-10
8.33606e-10
8.23668e-10
1.44e-11
-8.38054e-10
1.47528e-11
8.21862e-10
-8.36599e-10
5.33707e-12
-8.36481e-10
8.31184e-10
8.31174e-10
-3.41697e-12
-8.27775e-10
3.0662e-11
-8.29541e-10
7.98958e-10
8.3738e-10
-8.37379e-10
8.22875e-10
1.48177e-11
-8.37694e-10
8.36525e-10
-8.40285e-10
1.40255e-11
-8.43181e-10
8.29175e-10
8.40318e-10
-8.40275e-10
-1.2632e-11
8.34959e-10
-8.2231e-10
-8.32539e-10
8.45526e-10
-3.04952e-11
8.66977e-10
-8.36438e-10
-1.46489e-11
8.338e-10
8.30338e-10
-9.94217e-12
-8.20401e-10
8.3188e-10
-8.4448e-10
8.4459e-10
-1.76054e-11
-8.26981e-10
-8.29837e-10
8.29848e-10
8.01813e-10
-8.33996e-10
3.22164e-11
8.32363e-10
-8.31174e-10
-1.10864e-12
8.35648e-10
8.94112e-12
8.30287e-10
-8.30296e-10
-3.12692e-11
8.97961e-10
-8.66618e-10
8.26487e-10
-8.26487e-10
-8.36346e-10
5.33918e-12
8.31059e-10
8.66477e-10
-8.35648e-10
-8.26922e-10
-6.87562e-13
8.27639e-10
8.30331e-10
8.31058e-10
-8.31062e-10
-8.33091e-10
8.33092e-10
8.36381e-10
-8.36393e-10
-7.99836e-10
7.67488e-10
3.24009e-11
-7.67449e-10
7.67478e-10
8.34964e-10
8.30435e-10
-8.30467e-10
-8.30028e-10
8.30034e-10
3.72628e-12
-8.40071e-10
-1.01747e-12
8.33398e-10
8.51039e-10
-8.69073e-10
1.82717e-11
-7.68738e-10
7.68771e-10
-7.99827e-10
3.23778e-11
8.34906e-10
-8.34926e-10
-1.29647e-11
-8.32525e-10
8.45493e-10
-8.31831e-10
8.31848e-10
-8.34944e-10
8.34738e-10
8.99185e-10
-8.9918e-10
-7.99991e-10
-8.33953e-10
1.29186e-11
8.21013e-10
8.33953e-10
-8.20303e-10
-1.3653e-11
7.6773e-10
3.26829e-11
-8.9916e-10
8.99163e-10
8.33631e-10
-8.33621e-10
-8.30054e-10
8.3006e-10
9.94427e-12
8.36309e-10
-8.46227e-10
8.99258e-10
-8.99238e-10
8.70359e-12
8.36737e-10
-8.45454e-10
-8.45468e-10
8.30106e-10
1.54479e-11
-8.51039e-10
8.29125e-10
2.18877e-11
-8.36165e-10
5.10641e-12
8.31053e-10
-8.33462e-10
8.3347e-10
8.30313e-10
-8.20365e-10
-8.4674e-10
1.3276e-11
4.86951e-12
-8.37562e-10
8.32632e-10
8.31717e-10
1.22566e-11
-8.43955e-10
8.44884e-10
-8.30118e-10
-8.32969e-10
8.32981e-10
-8.45086e-10
8.32577e-10
1.25315e-11
-8.21147e-10
8.35288e-10
-8.22475e-10
-1.28149e-11
8.31218e-10
-8.31215e-10
-5.30465e-12
-8.30316e-10
8.3574e-10
8.30283e-10
-8.20349e-10
-8.334e-10
8.33498e-10
8.28781e-10
-8.28783e-10
8.37024e-10
-8.37034e-10
8.40155e-10
-8.31813e-10
8.46606e-10
-1.4794e-11
-8.35137e-10
8.35127e-10
-8.47602e-10
8.31714e-10
8.31739e-10
-8.31737e-10
8.33638e-10
-8.33621e-10
8.98477e-10
-8.98454e-10
8.32156e-10
-1.08343e-12
3.40618e-12
8.35603e-10
-8.39028e-10
-8.34254e-10
8.97971e-10
8.40137e-10
3.48278e-12
-8.39691e-10
-1.46526e-11
-8.33238e-10
8.47918e-10
-8.23725e-10
-3.19901e-12
7.6775e-10
-3.7632e-12
8.30456e-10
-8.26647e-10
8.3077e-10
-8.27308e-10
8.42123e-10
-1.59154e-11
-8.26209e-10
-7.67631e-10
7.67628e-10
1.04103e-12
8.32718e-10
1.36551e-11
-8.46412e-10
8.32747e-10
1.22104e-11
-8.44035e-10
-8.3368e-10
8.19052e-10
-8.22744e-10
8.34945e-10
8.33087e-10
-9.10851e-13
1.47473e-11
8.2187e-10
8.3038e-10
-8.30384e-10
-1.4799e-11
7.68239e-10
-7.68219e-10
-8.26566e-10
8.26561e-10
-8.20089e-10
8.30176e-10
-1.01068e-11
-1.22595e-11
-8.33643e-10
8.33667e-10
-8.31722e-10
-1.47056e-11
8.46429e-10
-1.12085e-11
-8.24457e-10
8.35656e-10
8.32714e-10
-8.32656e-10
-1.23679e-11
8.34234e-10
-8.33432e-10
8.33441e-10
-1.4169e-11
8.44083e-10
-8.29913e-10
8.36423e-10
-8.40098e-10
3.78011e-12
-8.3503e-10
8.34283e-10
7.52924e-13
8.46565e-10
-1.46556e-11
-8.3188e-10
8.37694e-10
8.36388e-10
3.7285e-12
-7.99778e-10
7.67402e-10
3.23806e-11
1.60091e-11
8.22747e-10
1.42821e-11
-8.36322e-10
-3.04655e-11
8.66799e-10
-8.26507e-10
8.26536e-10
8.348e-10
-8.37067e-10
-3.34015e-11
8.99408e-10
-8.65978e-10
7.68487e-10
-7.68599e-10
8.35008e-10
-8.35007e-10
8.45662e-10
-8.32747e-10
-1.29223e-11
-8.23587e-10
-5.00211e-12
8.28506e-10
-8.39925e-10
8.22312e-10
8.30276e-10
-8.3662e-10
8.22297e-10
1.43602e-11
-8.01035e-10
8.36566e-10
8.40135e-10
-8.33241e-10
1.02598e-12
4.52232e-10
3.80312e-10
-3.35937e-11
-8.64836e-10
-2.85199e-11
7.97245e-10
8.43719e-10
-7.68971e-10
8.23339e-10
5.33428e-12
-8.36411e-10
8.31104e-10
9.45419e-13
8.32706e-10
-8.36327e-10
8.28582e-10
-5.04495e-12
-8.23695e-10
8.99184e-10
-8.99167e-10
-8.31253e-10
8.32573e-10
8.31095e-10
7.852e-13
8.33241e-10
-8.34e-10
8.30278e-10
-8.30293e-10
1.49286e-11
8.19974e-10
-8.35213e-10
8.35236e-10
-8.36351e-10
8.36353e-10
-8.33171e-10
8.33184e-10
8.34995e-10
8.36374e-10
-8.36377e-10
-8.40087e-10
5.3022e-12
8.30988e-10
-8.34689e-10
1.0409e-12
-8.33506e-10
8.33519e-10
8.46713e-10
-1.49725e-11
-8.36622e-10
-8.20283e-10
8.33926e-10
3.05062e-11
-8.30313e-10
-8.32619e-10
-8.31774e-10
8.31777e-10
8.34986e-10
8.29673e-10
-8.29671e-10
1.32055e-11
-6.38838e-12
8.35278e-10
8.34532e-10
-8.35603e-10
-8.30294e-10
8.35509e-10
-8.33866e-10
8.31529e-10
-8.38056e-10
8.36644e-10
-8.3665e-10
8.34705e-10
-1.35861e-11
-8.21139e-10
8.26647e-10
-3.05043e-11
8.6686e-10
5.30044e-12
8.31246e-10
-8.33678e-10
8.40071e-10
1.43135e-11
-8.37048e-10
8.99272e-10
-8.9924e-10
8.3346e-10
-8.33416e-10
-8.40335e-10
9.15224e-13
8.39513e-10
-1.59804e-11
-8.30278e-10
-1.29845e-11
-8.20402e-10
8.33384e-10
8.99406e-10
8.68072e-10
8.31399e-10
8.30352e-10
-3.73258e-12
-8.3181e-10
-8.03833e-13
8.23866e-10
-8.23823e-10
8.36746e-10
-4.04486e-12
8.49969e-10
-8.45929e-10
8.33792e-10
8.33946e-10
-8.33941e-10
8.32968e-10
1.36249e-11
1.84288e-11
-8.39581e-10
8.32972e-10
8.30921e-10
8.33113e-10
8.43733e-10
-8.32011e-10
8.3201e-10
-8.39925e-10
8.36449e-10
-8.36455e-10
8.3019e-10
8.39691e-10
8.27308e-10
-8.34611e-10
1.15656e-12
-8.35836e-10
-8.26715e-10
8.20317e-10
-1.59741e-11
8.46366e-10
-8.40393e-10
-6.61416e-13
-8.32763e-10
-8.27662e-10
8.20482e-10
8.35892e-10
-8.16953e-10
8.16967e-10
8.32777e-10
-8.32776e-10
8.3336e-10
-8.33357e-10
-8.30412e-10
8.3577e-10
8.20152e-10
-8.21007e-10
7.67524e-10
-8.3323e-10
8.18587e-10
1.47884e-11
8.30918e-10
3.73119e-12
-8.40196e-10
8.34199e-10
8.35703e-10
-8.39125e-10
8.31275e-10
-8.31809e-10
8.34111e-10
-8.21582e-10
8.35647e-10
-8.34234e-10
8.21268e-10
2.25366e-12
8.3503e-10
-8.37296e-10
8.32816e-10
1.5071e-11
-8.47899e-10
-7.67402e-10
-8.46163e-10
8.33369e-10
-7.9995e-10
7.6761e-10
3.23887e-11
-8.38055e-10
-8.43021e-10
8.43033e-10
8.36319e-10
8.34416e-10
-8.40399e-10
1.29685e-11
-8.5036e-10
-8.26651e-10
8.23725e-10
8.6684e-10
-1.22122e-11
-8.22709e-10
1.14765e-12
4.52265e-10
3.8043e-10
-8.31708e-10
-1.27053e-11
-8.26625e-10
3.81377e-10
4.5332e-10
8.36656e-10
-8.36634e-10
8.29176e-10
-8.32516e-10
8.3572e-10
-4.98007e-12
8.28826e-10
8.32539e-10
-8.44894e-10
1.23835e-11
8.20843e-10
1.31186e-11
8.43996e-10
8.34103e-10
3.07416e-11
3.3935e-12
8.34694e-10
8.26798e-10
-8.23339e-10
-8.29762e-10
8.40196e-10
-8.33401e-10
8.33418e-10
8.33996e-10
-8.36642e-10
8.22314e-10
1.43607e-11
8.29541e-10
-8.16566e-10
8.40144e-10
8.30445e-10
-8.30435e-10
8.15674e-10
-8.15517e-10
-8.45696e-10
1.56323e-11
-8.36604e-10
8.37016e-10
-8.3702e-10
-8.99366e-10
8.99401e-10
8.30254e-10
-8.30245e-10
-3.00054e-11
1.59729e-11
-8.36328e-10
-3.05004e-11
8.66787e-10
8.27705e-10
8.35707e-10
8.45405e-10
-1.41393e-11
-8.31275e-10
-8.27022e-10
-1.47036e-11
1.42791e-11
8.22749e-10
7.67619e-10
-8.39583e-10
-8.43951e-10
1.22572e-11
8.35751e-10
8.33919e-10
3.81233e-10
-1.15438e-12
4.53289e-10
7.99739e-10
-8.32375e-10
8.49973e-10
-8.46445e-10
5.35175e-12
8.31255e-10
1.56312e-11
-4.28628e-13
3.8166e-10
-8.20997e-10
-8.31819e-10
-8.29923e-10
-8.32632e-10
8.34804e-10
-8.36334e-10
-9.94248e-12
-1.52481e-11
1.32016e-11
-8.36423e-10
-8.30115e-10
8.30147e-10
-8.30143e-10
-8.36646e-10
2.98716e-11
1.43583e-11
-8.35656e-10
-8.31798e-10
-8.30106e-10
-8.3325e-10
-8.27006e-10
-8.35834e-10
-8.3705e-10
-8.4401e-10
8.37016e-10
-8.37024e-10
8.40285e-10
-8.26212e-10
-8.23591e-10
-8.36331e-10
-8.43114e-10
-8.199e-10
8.34952e-10
-8.26992e-10
-7.68953e-10
8.39894e-10
8.35834e-10
3.813e-10
4.53344e-10
-8.30269e-10
-8.29703e-10
-1.43063e-11
3.50271e-12
-8.39333e-10
8.18413e-10
1.47087e-11
-8.27716e-10
-3.23702e-11
-8.29699e-10
8.39225e-10
-8.36336e-10
8.12941e-10
2.97224e-11
-8.42687e-10
1.09013e-11
-8.45128e-10
-8.2167e-10
-8.45115e-10
-8.21657e-10
-7.46574e-10
7.46597e-10
8.33491e-10
7.73244e-10
-7.73253e-10
6.86455e-11
-8.93733e-10
8.25068e-10
8.41884e-10
6.02418e-11
2.08711e-11
-8.25068e-10
-2.2676e-11
8.39662e-10
-8.43464e-10
4.12799e-12
-8.39731e-10
2.65374e-12
8.27309e-10
8.38506e-10
-1.11877e-11
8.38497e-10
-8.43091e-10
4.03893e-12
8.18905e-10
-4.08577e-10
9.18479e-13
-4.10985e-10
8.35192e-10
-1.38565e-11
-8.21358e-10
8.3519e-10
-4.11243e-10
8.19894e-10
-4.08837e-10
4.67282e-13
8.43464e-10
-8.98161e-10
-7.68884e-10
8.23587e-10
8.34366e-10
-1.47822e-11
-8.19583e-10
8.34366e-10
-4.11163e-10
-4.08743e-10
8.19841e-10
4.81087e-13
8.39731e-10
-8.99264e-10
-7.67391e-10
8.26905e-10
8.34151e-10
-1.5051e-11
-8.19105e-10
8.34069e-10
-1.51282e-11
-8.18966e-10
8.34138e-10
8.43091e-10
-8.85205e-10
8.23635e-10
-7.81456e-10
-1.0722e-10
9.20175e-10
8.34047e-10
-1.51443e-11
-8.18916e-10
8.34059e-10
-3.81827e-10
-2.93934e-11
-3.8174e-10
-2.93939e-11
-8.53782e-10
7.46574e-10
8.24059e-10
-8.24134e-10
8.34056e-10
-1.51451e-11
-8.18909e-10
8.34041e-10
8.34068e-10
8.32124e-10
-8.32123e-10
8.18002e-10
-8.18065e-10
8.34084e-10
-1.51295e-11
-8.18932e-10
8.34083e-10
8.3274e-10
-8.32732e-10
8.32818e-10
-8.32796e-10
8.34015e-10
-1.51032e-11
-8.18914e-10
8.34008e-10
8.32815e-10
-8.32804e-10
8.32545e-10
-8.32519e-10
8.33435e-10
-1.48069e-11
-8.18648e-10
8.33422e-10
1.6849e-11
-8.33512e-10
8.3947e-10
-7.69135e-10
7.97621e-10
-2.85104e-11
-7.69194e-10
8.37356e-10
-8.37334e-10
8.32955e-10
-8.32942e-10
-8.51323e-10
8.51298e-10
8.32604e-10
-8.32589e-10
8.17836e-10
-8.17898e-10
8.15711e-10
-8.15707e-10
8.37409e-10
-6.98898e-12
-8.30453e-10
8.37397e-10
8.327e-10
-8.32685e-10
8.32829e-10
-8.32805e-10
8.34877e-10
-1.3081e-11
-8.21817e-10
8.34873e-10
-8.98156e-10
8.34273e-10
-1.46869e-11
-8.19593e-10
8.34267e-10
8.33647e-10
-8.33622e-10
8.32967e-10
-8.32957e-10
8.34176e-10
-1.50826e-11
-8.19103e-10
8.3417e-10
8.3269e-10
-8.32681e-10
8.29756e-10
-8.29727e-10
8.34701e-10
-1.54837e-11
-8.19233e-10
-1.5992e-11
-8.20654e-10
8.3468e-10
-8.46146e-10
-1.49466e-11
8.3626e-10
-8.30579e-10
8.30588e-10
8.33494e-10
-1.23777e-11
-8.21139e-10
8.36249e-10
8.32484e-10
-8.32461e-10
8.31709e-10
-8.31701e-10
8.33492e-10
-8.99255e-10
8.33881e-10
-1.43633e-11
-8.19518e-10
8.33878e-10
8.31557e-10
-8.31542e-10
8.1772e-10
-8.178e-10
8.33974e-10
-1.50186e-11
-8.18962e-10
8.33967e-10
8.32792e-10
-8.32775e-10
8.3398e-10
-1.51228e-11
-8.1887e-10
8.33975e-10
-8.85085e-10
8.32787e-10
-8.32789e-10
8.33971e-10
-1.51435e-11
-8.18843e-10
8.33955e-10
-1.51576e-11
-8.18826e-10
8.33956e-10
8.32689e-10
-8.32689e-10
8.32838e-10
-8.32819e-10
8.34015e-10
-1.51932e-11
-8.18841e-10
8.33943e-10
8.3258e-10
-8.32571e-10
4.51543e-10
7.33535e-13
4.51535e-10
7.16539e-13
8.34574e-10
-1.54979e-11
-8.19092e-10
8.34004e-10
8.34567e-10
-8.20506e-10
-1.58683e-11
1.40738e-11
8.30887e-10
6.56732e-11
7.81456e-10
-8.46968e-10
-8.92755e-10
8.92771e-10
-8.30271e-10
8.30268e-10
8.99469e-10
-8.9944e-10
7.73446e-10
-7.73538e-10
-8.156e-10
8.15533e-10
-8.30395e-10
8.3043e-10
8.85475e-10
-8.85526e-10
8.98014e-10
-8.98015e-10
8.32031e-10
-8.32023e-10
8.32016e-10
-8.32015e-10
8.29817e-10
2.93046e-12
8.32231e-10
-8.32271e-10
8.32037e-10
-8.32011e-10
8.2979e-10
-8.94536e-10
8.94473e-10
8.32066e-10
-8.32063e-10
8.32025e-10
-8.32002e-10
8.48244e-10
1.69952e-11
-8.65325e-10
8.48219e-10
-8.29247e-10
-1.11769e-11
1.89707e-11
8.33755e-10
-1.4575e-11
-8.19181e-10
8.47398e-10
-1.42038e-11
8.32237e-10
-8.32291e-10
8.32688e-10
-8.3267e-10
8.33385e-10
8.18421e-10
-8.18467e-10
8.32076e-10
-8.32058e-10
8.33789e-10
-1.50058e-11
-8.18786e-10
8.33744e-10
8.33796e-10
8.97911e-10
-8.97937e-10
8.46195e-10
-1.40803e-11
8.33272e-10
-1.47718e-11
-8.18487e-10
8.33273e-10
8.38687e-10
-2.06658e-11
8.65933e-10
-8.35235e-10
-3.06558e-11
8.29393e-10
-1.2961e-11
-8.16431e-10
8.2938e-10
8.47674e-10
-1.49249e-11
8.47969e-10
-1.51367e-11
7.68742e-10
2.99841e-11
-7.98728e-10
7.68735e-10
8.47965e-10
-1.51397e-11
8.47794e-10
-1.52333e-11
8.42988e-10
-8.43024e-10
8.3148e-10
-8.37986e-10
6.36375e-12
-7.69585e-10
7.99083e-10
-2.95594e-11
8.6802e-10
-3.06539e-11
8.31397e-10
8.49274e-10
1.85882e-11
-8.677e-10
-8.97058e-10
8.97093e-10
8.47877e-10
-1.49179e-11
8.47526e-10
-1.49224e-11
-1.0086e-11
-8.29465e-10
8.49297e-10
-8.37056e-10
8.27604e-10
-8.9724e-10
8.97164e-10
8.38546e-10
-2.06668e-11
8.47813e-10
-1.51128e-11
-7.69615e-10
7.69531e-10
8.48692e-10
1.87975e-11
-8.67584e-10
8.48728e-10
8.47752e-10
-1.49193e-11
8.50325e-10
-1.66331e-11
8.3782e-10
-9.68923e-12
-8.28087e-10
8.35556e-10
-1.42435e-11
-8.21327e-10
8.37811e-10
8.47893e-10
-1.49209e-11
8.4755e-10
-1.48505e-11
8.37182e-10
-1.58816e-11
-8.21317e-10
8.35543e-10
8.44097e-10
-1.43314e-11
8.47701e-10
-1.52047e-11
-7.69683e-10
7.99153e-10
-2.9555e-11
8.47219e-10
-1.54914e-11
8.34979e-10
-8.22808e-10
-1.21793e-11
8.37173e-10
8.34984e-10
8.46293e-10
-1.47156e-11
8.38411e-10
-2.06417e-11
8.33906e-10
-1.36239e-11
-8.20268e-10
8.33905e-10
-8.20997e-10
-1.56619e-11
1.29066e-11
8.315e-10
-1.3065e-11
-8.35075e-10
8.35103e-10
3.34689e-11
7.67391e-10
-8.00846e-10
8.3151e-10
8.48119e-10
-1.53097e-11
8.47916e-10
-1.51314e-11
8.4568e-10
-1.51093e-11
8.47623e-10
-1.4937e-11
8.36535e-10
-2.08458e-11
8.48e-10
-1.51356e-11
8.47846e-10
-1.52607e-11
-8.32521e-10
8.32522e-10
-3.79883e-10
-2.88503e-11
-8.31907e-10
8.31898e-10
-8.29041e-10
8.2905e-10
-4.28933e-13
-8.47968e-10
8.47737e-10
-8.18691e-10
8.18629e-10
-7.72708e-10
7.72645e-10
8.34502e-10
-3.93782e-12
-8.30897e-10
8.34463e-10
-8.20492e-10
-1.57041e-11
1.39574e-11
8.31049e-10
-8.97193e-10
8.97166e-10
-7.69245e-10
7.69206e-10
-8.9802e-10
8.98076e-10
-7.69545e-10
7.69516e-10
8.4875e-10
1.88243e-11
-8.67615e-10
8.48757e-10
-8.37458e-10
8.37464e-10
-8.33992e-10
8.33978e-10
8.3774e-10
-9.66051e-12
-8.28079e-10
8.37722e-10
8.18879e-10
-8.32183e-10
8.32191e-10
8.34838e-10
-1.38474e-11
-8.21001e-10
8.34849e-10
-8.3281e-10
8.32823e-10
-8.3282e-10
8.32817e-10
8.3416e-10
-1.47926e-11
-8.19357e-10
8.34047e-10
-1.51035e-11
-8.18951e-10
8.34154e-10
-8.32828e-10
8.3284e-10
-8.32799e-10
8.32811e-10
8.34558e-10
-1.54757e-11
-8.19095e-10
8.34036e-10
-8.32816e-10
8.32809e-10
-8.32827e-10
8.32836e-10
-8.20473e-10
-1.58653e-11
8.34547e-10
1.40793e-11
8.31166e-10
-8.97257e-10
8.97221e-10
-8.32806e-10
8.32821e-10
-8.32788e-10
8.32787e-10
-7.69709e-10
8.48812e-10
1.8813e-11
-8.67666e-10
8.37822e-10
-9.68302e-12
-8.28148e-10
8.48811e-10
-8.32743e-10
8.32757e-10
-8.31804e-10
8.31825e-10
8.34919e-10
-1.3842e-11
-8.21088e-10
8.37815e-10
-8.2888e-10
8.28895e-10
-8.17911e-10
8.17903e-10
-8.33413e-10
8.33422e-10
-8.32861e-10
8.32873e-10
8.34216e-10
-1.48104e-11
-8.19411e-10
8.34902e-10
8.3422e-10
8.32819e-10
-8.32666e-10
8.32673e-10
8.34116e-10
-1.50926e-11
-8.19015e-10
8.34117e-10
-8.32749e-10
8.32748e-10
-8.32811e-10
8.32814e-10
8.3466e-10
-1.54901e-11
-8.19181e-10
8.34652e-10
-8.20628e-10
-1.59812e-11
1.40283e-11
-1.49662e-11
8.36229e-10
-8.30527e-10
8.30529e-10
8.33548e-10
-1.24256e-11
-8.2114e-10
8.36218e-10
-8.33486e-10
8.33493e-10
-8.32478e-10
8.3249e-10
8.34551e-10
-1.47623e-11
-8.19801e-10
8.33535e-10
-8.31781e-10
8.3179e-10
-8.28897e-10
8.28921e-10
-8.32057e-10
8.32057e-10
-8.32634e-10
8.32635e-10
8.36961e-10
-1.60731e-11
-8.20884e-10
8.34541e-10
8.36964e-10
-8.32694e-10
8.32708e-10
-8.32706e-10
8.32705e-10
8.34904e-10
-1.22682e-11
-8.22632e-10
8.34897e-10
-8.32741e-10
8.32744e-10
-8.33205e-10
8.33214e-10
8.33242e-10
-1.32773e-11
-8.19979e-10
8.3324e-10
-8.3051e-10
8.30498e-10
8.19807e-10
8.33777e-10
-1.46575e-11
-8.19122e-10
8.33769e-10
-8.23587e-10
-8.37455e-10
8.37491e-10
8.34001e-10
-1.51215e-11
-8.18884e-10
8.34005e-10
-8.33605e-10
8.33619e-10
-8.32653e-10
8.32667e-10
8.34673e-10
-1.55175e-11
-8.19154e-10
-1.62248e-11
-8.20802e-10
8.34661e-10
-8.4589e-10
-8.32763e-10
8.32758e-10
-8.32829e-10
8.32832e-10
-8.33526e-10
8.33529e-10
8.34852e-10
-1.25226e-11
8.3485e-10
-8.31915e-10
8.3194e-10
-8.32033e-10
8.32039e-10
8.33258e-10
-1.32928e-11
-8.19971e-10
8.33247e-10
-8.32922e-10
8.32927e-10
-8.33468e-10
8.33463e-10
8.33798e-10
-1.4662e-11
-8.19144e-10
8.33798e-10
-8.31829e-10
8.31836e-10
-8.32131e-10
8.32147e-10
8.3394e-10
-1.50632e-11
-8.18878e-10
8.33979e-10
-1.51483e-11
-8.18848e-10
8.33935e-10
-8.33167e-10
8.33171e-10
-8.32608e-10
8.32618e-10
8.34055e-10
-1.51946e-11
-8.1887e-10
8.33969e-10
-8.31785e-10
8.31796e-10
-8.28907e-10
8.28903e-10
-8.17966e-10
8.17938e-10
-8.3253e-10
8.32544e-10
8.34695e-10
-1.55401e-11
-8.19157e-10
8.34045e-10
8.34694e-10
-8.20834e-10
-1.62083e-11
1.38687e-11
-8.19998e-10
8.33226e-10
-1.32193e-11
-8.32427e-10
8.32437e-10
-8.28846e-10
8.28848e-10
1.49639e-11
8.46824e-10
8.33219e-10
-8.17848e-10
8.17819e-10
8.19754e-10
8.33221e-10
-1.4326e-11
-8.18887e-10
8.33243e-10
-8.26905e-10
-8.29317e-10
8.29341e-10
8.29525e-10
-1.28699e-11
-8.1661e-10
3.00363e-11
7.68884e-10
-7.98911e-10
8.2953e-10
-8.30974e-10
8.30984e-10
-8.28722e-10
8.28745e-10
-8.17088e-10
8.17207e-10
-7.69065e-10
7.68982e-10
-8.97876e-10
8.9788e-10
-8.37243e-10
8.37251e-10
-8.33347e-10
8.33361e-10
-8.32823e-10
8.32833e-10
-3.79986e-10
-2.88489e-11
-7.72473e-10
7.72409e-10
-8.23635e-10
-4.44095e-13
-8.47923e-10
8.47668e-10
8.32642e-10
-8.32633e-10
8.32726e-10
-8.32729e-10
8.34516e-10
-3.96853e-12
-8.30869e-10
8.34494e-10
-8.20603e-10
-1.58157e-11
1.3887e-11
8.45509e-10
-1.29511e-11
-1.49994e-11
8.36131e-10
-8.21152e-10
8.32768e-10
-8.32772e-10
8.3282e-10
-8.32818e-10
8.33399e-10
-1.23803e-11
-8.21028e-10
8.36124e-10
8.3292e-10
-8.32911e-10
8.33292e-10
-8.33302e-10
8.32134e-10
-8.32139e-10
8.32609e-10
-8.32606e-10
8.33796e-10
-1.43711e-11
-8.19422e-10
8.3339e-10
8.33796e-10
8.32013e-10
-8.32019e-10
8.29533e-10
-8.29546e-10
8.33889e-10
-1.50117e-11
-8.18877e-10
8.33889e-10
1.80861e-11
-8.69401e-10
8.32967e-10
-8.32963e-10
8.33916e-10
-1.51245e-11
-8.188e-10
8.33909e-10
8.32893e-10
-8.32871e-10
8.32827e-10
-8.32818e-10
8.33913e-10
-1.51385e-11
-8.18777e-10
8.3391e-10
8.32821e-10
-8.32827e-10
8.32796e-10
-8.32795e-10
8.33938e-10
-1.51505e-11
-8.18785e-10
8.33936e-10
8.31739e-10
-8.31751e-10
8.28488e-10
-8.28474e-10
8.33998e-10
-1.5179e-11
-8.18823e-10
8.34563e-10
-1.5494e-11
-8.19077e-10
8.33996e-10
-2.29568e-11
-8.01224e-10
-8.42689e-10
-1.58672e-11
-8.2047e-10
8.34555e-10
-8.46135e-10
8.31083e-10
-8.97235e-10
8.97202e-10
-8.31053e-10
7.70284e-10
8.96709e-10
-8.35892e-10
-8.36605e-10
8.21646e-10
1.4981e-11
-7.69614e-10
7.69576e-10
8.48764e-10
1.88258e-11
-8.67647e-10
8.48793e-10
1.59231e-11
1.5416e-11
-8.47543e-10
8.37812e-10
-9.64823e-12
-8.28127e-10
8.34921e-10
-1.3857e-11
-8.21078e-10
8.37804e-10
1.48485e-11
-8.47376e-10
1.38638e-11
-8.45782e-10
8.34217e-10
-1.48099e-11
-8.19421e-10
8.34913e-10
9.65947e-12
-1.87961e-11
-7.99326e-10
-8.31255e-10
8.97309e-10
7.69866e-10
-8.35834e-10
-8.29848e-10
8.94506e-10
-8.37322e-10
8.34124e-10
-1.51042e-11
-8.19018e-10
8.34211e-10
8.34122e-10
-1.70199e-11
-8.01726e-10
-7.67601e-10
8.39962e-10
8.27113e-10
8.34706e-10
-1.55113e-11
-8.192e-10
8.34699e-10
-8.20825e-10
-1.6216e-11
1.38728e-11
8.34823e-10
-1.25217e-11
-8.31886e-10
8.31907e-10
8.33229e-10
-1.32957e-11
-8.19945e-10
8.34817e-10
-3.34871e-11
-1.30937e-11
8.31701e-10
-8.51345e-10
8.30715e-10
2.06068e-11
-1.803e-11
-7.97628e-10
8.33782e-10
-1.46567e-11
-8.19126e-10
8.33224e-10
8.33782e-10
-8.31868e-10
8.97884e-10
-8.35212e-10
-8.43155e-10
8.38214e-10
8.33933e-10
-1.50665e-11
-8.18865e-10
8.33927e-10
-3.01234e-11
-8.67892e-10
1.21839e-11
-8.49652e-10
8.33974e-10
-1.5148e-11
-8.1884e-10
8.3397e-10
1.20034e-11
-8.46012e-10
-1.53194e-11
8.36156e-10
8.34053e-10
-1.51863e-11
-8.18872e-10
8.34048e-10
-8.36072e-10
8.20767e-10
1.5259e-11
4.20628e-12
-8.34838e-10
8.3469e-10
-1.55426e-11
-8.19158e-10
8.34686e-10
-8.20818e-10
-1.6208e-11
1.38728e-11
-2.87955e-11
-3.79809e-10
4.22764e-10
-4.51472e-10
-7.81533e-10
8.43195e-10
8.2375e-10
8.1886e-10
1.49178e-11
-8.33931e-10
8.33928e-10
-6.56179e-11
-8.19912e-10
-8.31246e-10
8.92956e-10
7.74161e-10
-8.35751e-10
8.33899e-10
-1.50852e-11
-8.18811e-10
8.33891e-10
1.54907e-11
1.51961e-11
-8.47931e-10
8.33345e-10
-1.48059e-11
-8.18548e-10
8.33354e-10
1.5151e-11
-8.47955e-10
1.51511e-11
-8.47977e-10
8.29492e-10
-1.29543e-11
-8.16508e-10
8.29499e-10
1.51434e-11
1.5151e-11
-8.47944e-10
7.68872e-10
2.99943e-11
-7.98845e-10
-8.43125e-10
7.68858e-10
8.31089e-10
-8.97218e-10
8.97196e-10
1.51506e-11
-8.47948e-10
1.51533e-11
-8.47974e-10
-7.69606e-10
8.48794e-10
1.88284e-11
-8.67636e-10
8.37813e-10
-9.68398e-12
-8.28124e-10
8.48794e-10
1.514e-11
1.51519e-11
-8.47958e-10
8.34949e-10
-1.38348e-11
-8.21105e-10
8.37822e-10
1.51387e-11
-8.47936e-10
1.51278e-11
-8.47918e-10
1.50548e-11
1.48085e-11
-8.47323e-10
8.34257e-10
-8.19453e-10
8.34944e-10
8.34262e-10
-8.45624e-10
-8.38569e-10
8.34087e-10
-8.19029e-10
8.34083e-10
-8.35707e-10
8.3404e-10
-8.18921e-10
8.34041e-10
8.23695e-10
8.34032e-10
-8.18899e-10
8.34027e-10
-8.50276e-10
-8.48217e-10
8.34037e-10
-8.18891e-10
8.34039e-10
-8.4794e-10
8.34039e-10
-8.18899e-10
8.34029e-10
-8.18891e-10
8.34032e-10
8.45907e-10
-8.47564e-10
8.3402e-10
-8.18887e-10
8.34023e-10
-8.47849e-10
-8.47899e-10
-8.47594e-10
8.34033e-10
-8.18887e-10
8.34015e-10
8.34036e-10
-8.4678e-10
-8.44394e-10
8.34044e-10
-8.18899e-10
8.34038e-10
8.45887e-10
8.34037e-10
-8.18898e-10
8.34037e-10
-8.47688e-10
-8.47284e-10
8.34047e-10
-8.18904e-10
8.34041e-10
-8.45641e-10
8.34121e-10
-8.18933e-10
8.3412e-10
-7.99114e-10
-8.3574e-10
8.34683e-10
-8.19195e-10
-1.58828e-11
-8.20587e-10
8.34672e-10
-8.46272e-10
8.92942e-10
-8.47553e-10
7.74152e-10
7.81533e-10
-8.47168e-10
-8.47831e-10
-8.47832e-10
8.43177e-10
4.03879e-12
-3.80249e-10
4.522e-10
8.48264e-10
-4.24707e-10
7.31445e-13
-8.47832e-10
-8.47175e-10
-8.45589e-10
8.36072e-10
-8.32075e-10
8.48073e-10
-1.30693e-11
-8.45689e-10
8.30777e-10
-8.4609e-10
8.32874e-10
-8.20896e-10
8.36142e-10
8.46112e-10
8.30773e-10
8.29347e-10
-8.17182e-10
8.3286e-10
-8.36412e-10
4.22707e-10
-4.24682e-10
-8.68112e-10
7.68827e-10
-7.98929e-10
8.29346e-10
7.68871e-10
-8.43124e-10
8.31868e-10
6.37095e-12
-8.47946e-10
8.97869e-10
8.45916e-10
-8.47549e-10
8.51345e-10
-8.69395e-10
-7.34534e-12
-8.3614e-10
8.35235e-10
-8.48307e-10
8.31721e-10
-8.47849e-10
-8.47916e-10
7.67601e-10
-8.01065e-10
-8.47625e-10
8.39955e-10
2.65347e-12
8.29848e-10
2.89772e-12
-8.46816e-10
-8.44421e-10
8.48326e-10
-8.65357e-10
8.94493e-10
-8.47806e-10
-1.08147e-11
-8.29128e-10
8.48316e-10
-8.37813e-10
8.97269e-10
-8.4758e-10
-8.4675e-10
7.69845e-10
8.48932e-10
-8.67757e-10
8.48947e-10
-8.45797e-10
8.37946e-10
-8.28281e-10
8.35046e-10
-8.21202e-10
8.37935e-10
-8.46896e-10
-8.45599e-10
8.34387e-10
-8.19557e-10
8.35038e-10
8.46097e-10
-8.47554e-10
-8.47275e-10
8.34766e-10
-8.19359e-10
8.3438e-10
8.34761e-10
-8.45626e-10
-8.38601e-10
8.36605e-10
-8.20681e-10
-1.20261e-11
-8.45249e-10
7.70262e-10
-8.65678e-10
8.96673e-10
-8.3577e-10
8.4611e-10
-8.47477e-10
-8.47636e-10
-8.45557e-10
8.45608e-10
-1.71382e-11
-8.38503e-10
8.47353e-10
-1.5607e-11
-7.99053e-10
-8.35647e-10
8.46171e-10
8.47955e-10
-1.51715e-11
-8.364e-10
8.47962e-10
-1.51427e-11
4.2271e-10
8.47964e-10
-1.51316e-11
-4.24693e-10
-8.65775e-10
8.48066e-10
-1.51688e-11
-8.48127e-10
8.48321e-10
-1.53603e-11
8.45585e-10
8.27662e-10
1.43718e-11
8.451e-10
-1.55799e-11
-8.452e-10
8.47293e-10
-1.52792e-11
-8.45223e-10
8.47771e-10
-1.51638e-11
-7.99071e-10
-8.39225e-10
-1.40263e-11
-8.3481e-10
-7.98435e-10
8.47274e-10
-1.39746e-11
8.47837e-10
-1.49159e-11
-8.67893e-10
8.47912e-10
-1.50966e-11
-8.50203e-10
-8.47784e-10
8.47887e-10
-1.51304e-11
8.47826e-10
-1.51018e-11
8.37389e-10
8.47556e-10
-1.49127e-11
-8.01524e-10
8.46162e-10
8.35407e-10
8.19412e-10
-4.58025e-11
-8.3719e-10
-8.3713e-10
-2.91482e-11
-1.49581e-11
-1.68419e-11
-3.06515e-11
8.3481e-10
-2.93931e-11
-1.98326e-11
-2.95796e-11
-1.64848e-11
-1.42259e-11
8.43722e-10
-8.33514e-10
-3.06647e-11
-1.68396e-11
-2.95516e-11
-2.06786e-11
-1.67213e-11
-1.52028e-11
-1.49412e-11
3.09618e-11
-2.06634e-11
1.50202e-11
-1.67276e-11
1.54784e-11
-1.54915e-11
1.67316e-11
2.9481e-11
-1.49357e-11
1.91839e-11
-1.50782e-11
2.90816e-11
-1.37345e-11
-1.36565e-11
2.84225e-11
3.04274e-11
1.56736e-11
-1.49183e-11
1.52393e-11
-1.41184e-11
1.59583e-11
-1.48848e-11
-4.5402e-10
2.93244e-11
4.57603e-11
-1.38592e-11
1.40813e-11
-1.48784e-11
-1.41034e-11
1.51083e-11
1.51382e-11
1.51372e-11
-1.50878e-11
-1.50987e-11
1.51338e-11
-1.48881e-11
1.51388e-11
1.5138e-11
-1.4332e-11
1.51373e-11
1.51487e-11
-3.06183e-11
1.51615e-11
1.54981e-11
1.67287e-11
-1.67992e-11
2.06659e-11
-1.50959e-11
-1.39677e-11
1.68543e-11
1.53441e-11
1.51218e-11
-1.50887e-11
1.4891e-11
-1.5132e-11
1.51011e-11
-1.51251e-11
1.50852e-11
1.41008e-11
-1.49189e-11
1.48729e-11
-1.40849e-11
-2.95552e-11
1.51978e-11
1.54944e-11
-1.67264e-11
-4.54053e-10
8.23736e-10
-4.5406e-10
-8.35197e-10
8.27108e-10
8.37322e-10
)
;

boundaryField
{
    inlet
    {
        type            calculated;
        value           uniform -8.335e-10;
    }
    Walls
    {
        type            calculated;
        value           uniform 0;
    }
    outlet
    {
        type            calculated;
        value           nonuniform List<scalar> 2(8.32575e-10 8.34219e-10);
    }
}


// ************************************************************************* //
