/*--------------------------------*- C++ -*----------------------------------*\
  =========                 |
  \\      /  F ield         | OpenFOAM: The Open Source CFD Toolbox
   \\    /   O peration     | Website:  https://openfoam.org
    \\  /    A nd           | Version:  13
     \\/     M anipulation  |
\*---------------------------------------------------------------------------*/
FoamFile
{
    format      ascii;
    class       surfaceScalarField;
    location    "35";
    object      phi;
}
// * * * * * * * * * * * * * * * * * * * * * * * * * * * * * * * * * * * * * //

dimensions      [0 3 -1 0 0 0 0];

internalField   nonuniform List<scalar> 
1275
(
2.96978e-12
1.84911e-12
1.84911e-12
2.64083e-12
1.64473e-13
1.64474e-13
2.76428e-12
-6.17283e-14
-6.1728e-14
2.71828e-12
2.30031e-14
2.30029e-14
2.7357e-12
-8.71197e-15
-8.7119e-15
2.72911e-12
3.29491e-15
3.2948e-15
2.7316e-12
-1.24675e-15
-1.24679e-15
2.73063e-12
4.86032e-16
4.86011e-16
2.73104e-12
-2.08634e-16
-2.09336e-16
2.7307e-12
1.45414e-16
1.43687e-16
2.73098e-12
-1.25148e-16
-1.22675e-16
2.73066e-12
1.28837e-16
1.2642e-16
2.73097e-12
-1.26766e-16
-1.22916e-16
2.7307e-12
1.09072e-16
1.07103e-16
2.73094e-12
-9.35447e-17
-9.00201e-17
2.73084e-12
4.66408e-17
4.75735e-17
2.73091e-12
-2.9766e-17
-3.08528e-17
2.73088e-12
1.7354e-17
1.7827e-17
2.73092e-12
-1.90396e-17
-1.92247e-17
1.59597e-17
1.68617e-17
5.01555e-12
8.24052e-13
2.67753e-12
4.83102e-12
8.72253e-14
2.61783e-13
4.89965e-12
-3.26963e-14
-9.76719e-14
4.8745e-12
1.21365e-14
3.60262e-14
4.88401e-12
-4.59681e-15
-1.36343e-14
4.88042e-12
1.73613e-15
5.14822e-15
4.88176e-12
-6.57977e-16
-1.94448e-15
4.88122e-12
2.51513e-16
7.65086e-16
4.88145e-12
-1.14177e-16
-3.42715e-16
4.88114e-12
3.81623e-17
2.70176e-16
4.88142e-12
-4.18035e-17
-2.48673e-16
4.88107e-12
1.90478e-17
2.68386e-16
4.8814e-12
-2.87981e-17
-2.62505e-16
4.88111e-12
1.82074e-17
2.31387e-16
4.88138e-12
-1.3722e-17
-1.9313e-16
4.88129e-12
2.04614e-17
1.03186e-16
4.88137e-12
-4.21488e-18
-6.70759e-17
4.88134e-12
9.04209e-18
3.84788e-17
4.88139e-12
-2.65574e-18
-4.21536e-17
6.6376e-18
3.60382e-17
5.54888e-12
-8.24055e-13
2.76724e-12
5.44221e-12
-8.72209e-14
2.81117e-13
5.48175e-12
3.26903e-14
-1.04933e-13
5.46743e-12
-1.21279e-14
3.85905e-14
5.47283e-12
4.58893e-15
-1.45908e-14
5.4708e-12
-1.73469e-15
5.49961e-15
5.47155e-12
6.53728e-16
-2.073e-15
5.47123e-12
-2.59638e-16
8.15986e-16
5.47137e-12
1.04709e-16
-3.76141e-16
5.47109e-12
-1.16524e-16
2.96414e-16
5.47136e-12
9.29396e-17
-2.88669e-16
5.47101e-12
-1.2035e-16
3.06273e-16
5.47134e-12
1.08281e-16
-3.04463e-16
5.47105e-12
-9.97262e-17
2.66386e-16
5.47132e-12
8.68469e-17
-2.19605e-16
5.47124e-12
-2.83652e-17
1.22991e-16
5.47132e-12
2.58428e-17
-7.42345e-17
5.47129e-12
-8.18573e-18
4.4275e-17
5.47134e-12
1.77398e-17
-4.76337e-17
-1.02083e-17
4.32426e-17
5.01555e-12
-1.84911e-12
2.67752e-12
4.83102e-12
-1.6447e-13
2.61784e-13
4.89965e-12
6.17242e-14
-9.76717e-14
4.8745e-12
-2.29979e-14
3.60277e-14
4.88401e-12
8.70795e-15
-1.36373e-14
4.88042e-12
-3.2951e-15
5.1491e-15
4.88176e-12
1.243e-15
-1.94528e-15
4.88122e-12
-4.91268e-16
7.62673e-16
4.88145e-12
2.03003e-16
-3.46982e-16
4.88114e-12
-1.94342e-16
2.49524e-16
4.88142e-12
1.61273e-16
-2.34017e-16
4.88107e-12
-1.92353e-16
2.42302e-16
4.8814e-12
1.82275e-16
-2.39606e-16
4.88111e-12
-1.5917e-16
2.10352e-16
4.88138e-12
1.44258e-16
-1.72073e-16
4.88129e-12
-5.00827e-17
1.03305e-16
4.88137e-12
4.13275e-17
-6.35672e-17
4.88134e-12
-1.59146e-17
3.98073e-17
4.88139e-12
2.76775e-17
-3.77013e-17
-1.8795e-17
3.53539e-17
2.96978e-12
1.84912e-12
2.64083e-12
1.64477e-13
2.76428e-12
-6.17308e-14
2.71828e-12
2.30061e-14
2.7357e-12
-8.71467e-15
2.72911e-12
3.29483e-15
2.7316e-12
-1.2492e-15
2.73063e-12
4.83264e-16
2.73104e-12
-2.13527e-16
2.7307e-12
1.19393e-16
2.73098e-12
-1.03412e-16
2.73066e-12
9.5474e-17
2.73097e-12
-9.2479e-17
2.7307e-12
8.32361e-17
2.73094e-12
-6.17344e-17
2.73084e-12
4.77706e-17
2.73091e-12
-2.60564e-17
2.73088e-12
1.89393e-17
2.73092e-12
-1.4365e-17
1.46903e-17
5.01555e-12
2.67753e-12
8.24051e-13
4.83102e-12
2.61783e-13
8.72257e-14
4.89965e-12
-9.76726e-14
-3.26955e-14
4.8745e-12
3.60267e-14
1.2136e-14
4.88401e-12
-1.36346e-14
-4.59652e-15
4.88042e-12
5.14833e-15
1.73598e-15
4.88176e-12
-1.94437e-15
-6.58086e-16
4.88122e-12
7.65048e-16
2.51603e-16
4.88145e-12
-3.41797e-16
-1.15578e-16
4.88114e-12
2.73675e-16
3.48418e-17
4.88142e-12
-2.54407e-16
-3.61312e-17
4.88107e-12
2.73062e-16
1.46883e-17
4.8814e-12
-2.7057e-16
-2.05301e-17
4.88111e-12
2.35351e-16
1.45981e-17
4.88138e-12
-2.005e-16
-6.01988e-18
4.88129e-12
1.01647e-16
2.266e-17
4.88137e-12
-6.51708e-17
-6.74084e-18
4.88134e-12
3.79309e-17
9.8679e-18
4.88139e-12
-4.1788e-17
-3.0836e-18
3.40466e-17
9.07391e-18
9.4148e-12
1.30414e-12
1.30414e-12
9.64504e-12
1.46671e-13
1.46671e-13
9.55872e-12
-5.45264e-14
-5.45256e-14
9.59081e-12
1.99966e-14
1.9996e-14
9.57869e-12
-7.587e-15
-7.58658e-15
9.58324e-12
2.87166e-15
2.87121e-15
9.58151e-12
-1.09144e-15
-1.0914e-15
9.58217e-12
4.16201e-16
4.16107e-16
9.58181e-12
-1.82726e-16
-1.84142e-16
9.58188e-12
5.35462e-17
4.98144e-17
9.58176e-12
-5.0549e-17
-4.44407e-17
9.5818e-12
1.36884e-17
8.44083e-18
9.58174e-12
-2.45514e-17
-1.47867e-17
9.58181e-12
1.43345e-17
1.01076e-17
9.58181e-12
-5.3875e-18
3.71889e-18
9.58194e-12
2.68016e-17
2.92562e-17
9.5819e-12
-3.22351e-18
-6.04866e-18
9.58197e-12
1.11351e-17
1.19057e-17
9.58195e-12
-2.40426e-18
-2.89374e-18
7.15582e-18
1.01069e-17
1.06695e-11
-1.30412e-12
1.37406e-12
1.10848e-11
-1.46668e-13
1.59149e-13
1.09299e-11
5.45115e-14
-5.91356e-14
1.09869e-11
-1.99811e-14
2.16019e-14
1.09653e-11
7.58006e-15
-8.19353e-15
1.09735e-11
-2.87286e-15
3.09737e-15
1.09704e-11
1.08408e-15
-1.17633e-15
1.09716e-11
-4.32413e-16
4.47602e-16
1.0971e-11
1.70204e-16
-2.04762e-16
1.09711e-11
-1.98625e-16
5.01276e-17
1.0971e-11
1.51225e-16
-4.99241e-17
1.0971e-11
-2.00561e-16
8.85822e-18
1.0971e-11
1.81515e-16
-1.51477e-17
1.0971e-11
-1.63349e-16
1.21947e-17
1.0971e-11
1.52232e-16
8.04645e-18
1.09712e-11
-4.21377e-17
3.79746e-17
1.09711e-11
4.67737e-17
-7.74404e-18
1.09712e-11
-1.48584e-17
1.50465e-17
1.09712e-11
2.90462e-17
-1.92978e-18
-1.68416e-17
1.27207e-17
9.4148e-12
-2.67751e-12
1.30413e-12
9.64504e-12
-2.61786e-13
1.46675e-13
9.55872e-12
9.76622e-14
-5.45256e-14
9.59081e-12
-3.60164e-14
1.99968e-14
9.57869e-12
1.36321e-14
-7.59011e-15
9.58324e-12
-5.15139e-15
2.8749e-15
9.58151e-12
1.94139e-15
-1.09206e-15
9.58217e-12
-7.76164e-16
4.16472e-16
9.58181e-12
3.35049e-16
-1.95472e-16
9.58188e-12
-3.59608e-16
6.17987e-17
9.58176e-12
3.1468e-16
-6.34725e-17
9.5818e-12
-3.80281e-16
3.03462e-17
9.58174e-12
3.6453e-16
-3.24236e-17
9.58181e-12
-3.20213e-16
3.09613e-17
9.58181e-12
2.90937e-16
-5.63409e-18
9.58194e-12
-1.10637e-16
4.10728e-17
9.5819e-12
9.31463e-17
-7.97967e-18
9.58197e-12
-4.31883e-17
1.33043e-17
9.58195e-12
5.82994e-17
-2.46763e-19
-4.1169e-17
7.59546e-18
5.01555e-12
8.24066e-13
4.83102e-12
8.72225e-14
4.89965e-12
-3.2701e-14
4.8745e-12
1.21406e-14
4.88401e-12
-4.59538e-15
4.88042e-12
1.73425e-15
4.88176e-12
-6.56891e-16
4.88122e-12
2.49591e-16
4.88145e-12
-1.15081e-16
4.88114e-12
3.76561e-17
4.88142e-12
-3.92688e-17
4.88107e-12
2.24654e-17
4.8814e-12
-2.25981e-17
4.88111e-12
2.16153e-17
4.88138e-12
-3.47561e-18
4.88129e-12
2.20821e-17
4.88137e-12
-1.3902e-18
4.88134e-12
3.44313e-18
4.88139e-12
-1.44113e-18
6.43184e-18
5.54888e-12
2.76724e-12
-8.24054e-13
5.44221e-12
2.81118e-13
-8.72215e-14
5.48175e-12
-1.04933e-13
3.26907e-14
5.46743e-12
3.85907e-14
-1.21285e-14
5.47283e-12
-1.45913e-14
4.58934e-15
5.4708e-12
5.49994e-15
-1.73502e-15
5.47155e-12
-2.0732e-15
6.53794e-16
5.47123e-12
8.16129e-16
-2.59688e-16
5.47137e-12
-3.76756e-16
1.04948e-16
5.47109e-12
2.98257e-16
-1.17963e-16
5.47136e-12
-2.91563e-16
9.60751e-17
5.47101e-12
3.09237e-16
-1.22547e-16
5.47134e-12
-3.08819e-16
1.12644e-16
5.47105e-12
2.68986e-16
-1.01657e-16
5.47132e-12
-2.23489e-16
9.07199e-17
5.47124e-12
1.23183e-16
-2.81729e-17
5.47132e-12
-7.38739e-17
2.51463e-17
5.47129e-12
4.48632e-17
-8.31813e-18
5.47134e-12
-4.75336e-17
1.77165e-17
4.20335e-17
-9.12758e-18
1.06695e-11
1.37406e-12
-1.30412e-12
1.10848e-11
1.5915e-13
-1.46667e-13
1.09299e-11
-5.91367e-14
5.45121e-14
1.09869e-11
2.16028e-14
-1.99815e-14
1.09653e-11
-8.19404e-15
7.58012e-15
1.09735e-11
3.09781e-15
-2.87291e-15
1.09704e-11
-1.17627e-15
1.08404e-15
1.09716e-11
4.47638e-16
-4.32178e-16
1.0971e-11
-2.03068e-16
1.68218e-16
1.09711e-11
5.54899e-17
-1.98235e-16
1.0971e-11
-5.89001e-17
1.52235e-16
1.0971e-11
1.61774e-17
-1.99484e-16
1.0971e-11
-2.85854e-17
1.83856e-16
1.0971e-11
1.82314e-17
-1.6211e-16
1.0971e-11
-4.35815e-18
1.55004e-16
1.09712e-11
3.49655e-17
-3.90489e-17
1.09711e-11
-4.18597e-18
4.39886e-17
1.09712e-11
1.40924e-17
-1.37646e-17
1.09712e-11
-1.32626e-18
2.862e-17
8.98756e-18
-1.45192e-17
1.21642e-11
-1.37405e-12
-1.37405e-12
1.28008e-11
-1.59143e-13
-1.59143e-13
1.25643e-11
5.91174e-14
5.91183e-14
1.26507e-11
-2.15808e-14
-2.15814e-14
1.26179e-11
8.18052e-15
8.18093e-15
1.26303e-11
-3.09656e-15
-3.09683e-15
1.26256e-11
1.16772e-15
1.16773e-15
1.26274e-11
-4.68276e-16
-4.68183e-16
1.26266e-11
1.75155e-16
1.73966e-16
1.26268e-11
-2.21793e-16
-2.23802e-16
1.26266e-11
1.61914e-16
1.66417e-16
1.26267e-11
-2.20275e-16
-2.2284e-16
1.26266e-11
2.00811e-16
2.07712e-16
1.26267e-11
-1.7756e-16
-1.7959e-16
1.26267e-11
1.7408e-16
1.80691e-16
1.26268e-11
-4.10151e-17
-3.86657e-17
1.26268e-11
5.62109e-17
5.35936e-17
1.26269e-11
-1.87424e-17
-1.81643e-17
1.26269e-11
3.83554e-17
3.79509e-17
-2.3297e-17
-2.05352e-17
1.06695e-11
-2.76724e-12
-1.30413e-12
1.10848e-11
-2.81109e-13
-1.46669e-13
1.09299e-11
1.04928e-13
5.45144e-14
1.09869e-11
-3.85839e-14
-1.99833e-14
1.09653e-11
1.45826e-14
7.58073e-15
1.09735e-11
-5.49936e-15
-2.87279e-15
1.09704e-11
2.06554e-15
1.08403e-15
1.09716e-11
-8.26358e-16
-4.32141e-16
1.0971e-11
3.61241e-16
1.66458e-16
1.09711e-11
-4.01691e-16
-1.93035e-16
1.0971e-11
3.66951e-16
1.47441e-16
1.0971e-11
-4.42346e-16
-1.91021e-16
1.0971e-11
4.25346e-16
1.78948e-16
1.0971e-11
-3.73155e-16
-1.54258e-16
1.0971e-11
3.29533e-16
1.52155e-16
1.09712e-11
-1.24773e-16
-3.58512e-17
1.09711e-11
9.36896e-17
4.28323e-17
1.09712e-11
-3.68136e-17
-1.36541e-17
1.09712e-11
6.60333e-17
2.86752e-17
-4.87683e-17
-1.60315e-17
5.54888e-12
-8.24048e-13
5.44221e-12
-8.72194e-14
5.48175e-12
3.26882e-14
5.46743e-12
-1.21266e-14
5.47283e-12
4.5884e-15
5.4708e-12
-1.73516e-15
5.47155e-12
6.53809e-16
5.47123e-12
-2.60008e-16
5.47137e-12
1.02391e-16
5.47109e-12
-1.14111e-16
5.47136e-12
9.22383e-17
5.47101e-12
-1.14617e-16
5.47134e-12
1.08773e-16
5.47105e-12
-9.40233e-17
5.47132e-12
8.9191e-17
5.47124e-12
-2.45112e-17
5.47132e-12
2.41022e-17
5.47129e-12
-8.22627e-18
5.47134e-12
1.83298e-17
-1.04212e-17
5.01555e-12
2.67752e-12
-1.84911e-12
4.83102e-12
2.61783e-13
-1.6447e-13
4.89965e-12
-9.76719e-14
6.1724e-14
4.8745e-12
3.60277e-14
-2.29978e-14
4.88401e-12
-1.36372e-14
8.70792e-15
4.88042e-12
5.14912e-15
-3.29504e-15
4.88176e-12
-1.94515e-15
1.24307e-15
4.88122e-12
7.62753e-16
-4.91233e-16
4.88145e-12
-3.45697e-16
2.03362e-16
4.88114e-12
2.52362e-16
-1.92615e-16
4.88142e-12
-2.37502e-16
1.58962e-16
4.88107e-12
2.46115e-16
-1.89966e-16
4.8814e-12
-2.45165e-16
1.7901e-16
4.88111e-12
2.13413e-16
-1.57164e-16
4.88138e-12
-1.77198e-16
1.41383e-16
4.88129e-12
1.01791e-16
-5.04897e-17
4.88137e-12
-6.21418e-17
4.18696e-17
4.88134e-12
3.89747e-17
-1.62068e-17
4.88139e-12
-3.73557e-17
2.77791e-17
3.42531e-17
-1.92374e-17
9.4148e-12
1.30413e-12
-2.67751e-12
9.64504e-12
1.46675e-13
-2.61785e-13
9.55872e-12
-5.45264e-14
9.7662e-14
9.59081e-12
1.99973e-14
-3.60162e-14
9.57869e-12
-7.59042e-15
1.36319e-14
9.58324e-12
2.87526e-15
-5.15138e-15
9.58151e-12
-1.09209e-15
1.94138e-15
9.58217e-12
4.16448e-16
-7.76191e-16
9.58181e-12
-1.93597e-16
3.3472e-16
9.58188e-12
6.40627e-17
-3.59023e-16
9.58176e-12
-6.78298e-17
3.13284e-16
9.5818e-12
3.33162e-17
-3.79453e-16
9.58174e-12
-3.98863e-17
3.6294e-16
9.58181e-12
3.31557e-17
-3.19387e-16
9.58182e-12
-1.28853e-17
2.89554e-16
9.58194e-12
3.79969e-17
-1.10458e-16
9.5819e-12
-4.83343e-18
9.32235e-17
9.58197e-12
1.22925e-17
-4.29549e-17
9.58195e-12
2.75263e-19
5.82885e-17
4.56153e-18
-4.15373e-17
1.06695e-11
-1.30413e-12
-2.76724e-12
1.10848e-11
-1.46669e-13
-2.81109e-13
1.09299e-11
5.45138e-14
1.04929e-13
1.09869e-11
-1.99829e-14
-3.85841e-14
1.09653e-11
7.58056e-15
1.45826e-14
1.09735e-11
-2.87262e-15
-5.49935e-15
1.09704e-11
1.08407e-15
2.06545e-15
1.09716e-11
-4.32251e-16
-8.26315e-16
1.0971e-11
1.68073e-16
3.60937e-16
1.09711e-11
-1.9168e-16
-4.03434e-16
1.0971e-11
1.44288e-16
3.69931e-16
1.0971e-11
-1.89446e-16
-4.44602e-16
1.0971e-11
1.73711e-16
4.29223e-16
1.0971e-11
-1.53161e-16
-3.75115e-16
1.0971e-11
1.46992e-16
3.32994e-16
1.09712e-11
-3.84478e-17
-1.24204e-16
1.09711e-11
4.54331e-17
9.29138e-17
1.09712e-11
-1.45688e-17
-3.65964e-17
1.09712e-11
2.90835e-17
6.59167e-17
-1.83823e-17
-4.79572e-17
9.4148e-12
-2.67752e-12
-2.67752e-12
9.64504e-12
-2.61784e-13
-2.61785e-13
9.55872e-12
9.76703e-14
9.76707e-14
9.59081e-12
-3.60246e-14
-3.60249e-14
9.57869e-12
1.36345e-14
1.36348e-14
9.58324e-12
-5.1509e-15
-5.15101e-15
9.58151e-12
1.94018e-15
1.94018e-15
9.58217e-12
-7.71988e-16
-7.71953e-16
9.58181e-12
3.39434e-16
3.39297e-16
9.58188e-12
-3.39281e-16
-3.40294e-16
9.58176e-12
3.04575e-16
3.06758e-16
9.5818e-12
-3.59976e-16
-3.6136e-16
9.58174e-12
3.45593e-16
3.4858e-16
9.58181e-12
-3.03903e-16
-3.05114e-16
9.58182e-12
2.67735e-16
2.70492e-16
9.58194e-12
-1.09303e-16
-1.08818e-16
9.5819e-12
8.21604e-17
8.14213e-17
9.58197e-12
-3.64456e-17
-3.64037e-17
9.58195e-12
5.17194e-17
5.16061e-17
-4.03877e-17
-3.94526e-17
5.01555e-12
-1.84911e-12
4.83102e-12
-1.64473e-13
4.89965e-12
6.17268e-14
4.8745e-12
-2.30012e-14
4.88401e-12
8.71066e-15
4.88042e-12
-3.29528e-15
4.88176e-12
1.24525e-15
4.88122e-12
-4.88677e-16
4.88145e-12
2.06639e-16
4.88114e-12
-1.69397e-16
4.88142e-12
1.42173e-16
4.88107e-12
-1.59974e-16
4.8814e-12
1.52606e-16
4.88111e-12
-1.33687e-16
4.88138e-12
1.1705e-16
4.88129e-12
-4.90983e-17
4.88137e-12
3.60622e-17
4.88134e-12
-1.68007e-17
4.88139e-12
2.31862e-17
-1.75788e-17
2.96978e-12
1.84912e-12
2.64083e-12
1.64477e-13
2.76428e-12
-6.17311e-14
2.71828e-12
2.30064e-14
2.7357e-12
-8.71477e-15
2.72911e-12
3.29495e-15
2.7316e-12
-1.24913e-15
2.73063e-12
4.83273e-16
2.73104e-12
-2.12876e-16
2.7307e-12
1.21413e-16
2.73098e-12
-1.06528e-16
2.73066e-12
9.82184e-17
2.73097e-12
-9.70285e-17
2.7307e-12
8.55063e-17
2.73094e-12
-6.58628e-17
2.73084e-12
4.68227e-17
2.73091e-12
-2.4931e-17
2.73088e-12
1.84931e-17
2.73092e-12
-1.41812e-17
1.36619e-17
5.01555e-12
8.24065e-13
4.83102e-12
8.72226e-14
4.89965e-12
-3.27016e-14
4.8745e-12
1.21411e-14
4.88401e-12
-4.5957e-15
4.88042e-12
1.73441e-15
4.88176e-12
-6.56845e-16
4.88122e-12
2.49533e-16
4.88145e-12
-1.14572e-16
4.88114e-12
4.00683e-17
4.88142e-12
-4.38756e-17
4.88107e-12
2.57132e-17
4.8814e-12
-2.8975e-17
4.88111e-12
2.44053e-17
4.88138e-12
-9.30457e-18
4.88129e-12
2.09291e-17
4.88137e-12
1.98163e-19
4.88134e-12
3.15136e-18
4.88139e-12
-1.21677e-18
4.65826e-18
5.54888e-12
-8.24048e-13
5.44221e-12
-8.72192e-14
5.48175e-12
3.26878e-14
5.46743e-12
-1.21262e-14
5.47283e-12
4.58813e-15
5.4708e-12
-1.73498e-15
5.47155e-12
6.53756e-16
5.47123e-12
-2.60029e-16
5.47137e-12
1.02635e-16
5.47109e-12
-1.13481e-16
5.47136e-12
9.05908e-17
5.47101e-12
-1.13687e-16
5.47134e-12
1.06223e-16
5.47105e-12
-9.32495e-17
5.47132e-12
8.67566e-17
5.47124e-12
-2.51639e-17
5.47132e-12
2.4991e-17
5.47129e-12
-8.31714e-18
5.47134e-12
1.84469e-17
-1.14588e-17
5.01555e-12
-1.84911e-12
4.83102e-12
-1.64473e-13
4.89965e-12
6.17268e-14
4.8745e-12
-2.30012e-14
4.88401e-12
8.71063e-15
4.88042e-12
-3.29522e-15
4.88176e-12
1.2452e-15
4.88122e-12
-4.88663e-16
4.88145e-12
2.06746e-16
4.88114e-12
-1.69782e-16
4.88142e-12
1.42707e-16
4.88107e-12
-1.60428e-16
4.8814e-12
1.53043e-16
4.88111e-12
-1.34122e-16
4.88138e-12
1.17369e-16
4.88129e-12
-4.92629e-17
4.88137e-12
3.62126e-17
4.88134e-12
-1.68501e-17
4.88139e-12
2.31895e-17
-1.76823e-17
2.96978e-12
2.64083e-12
2.76428e-12
2.71828e-12
2.7357e-12
2.72911e-12
2.7316e-12
2.73063e-12
2.73104e-12
2.7307e-12
2.73098e-12
2.73066e-12
2.73097e-12
2.7307e-12
2.73094e-12
2.73084e-12
2.73091e-12
2.73088e-12
2.73092e-12
)
;

boundaryField
{
    inlet
    {
        type            calculated;
        value           nonuniform List<scalar> 
25
(
-6.668e-12
-6.668e-12
-6.668e-12
-6.668e-12
-6.668e-12
-6.668e-12
-6.668e-12
-6.668e-12
-6.668e-12
-6.668e-12
-6.668e-12
-6.668e-12
-6.668e-12
-6.668e-12
-6.668e-12
-6.668e-12
-6.668e-12
-6.668e-12
-6.668e-12
-6.668e-12
-6.668e-12
-6.668e-12
-6.668e-12
-6.668e-12
-6.668e-12
)
;
    }
    outlet
    {
        type            calculated;
        value           nonuniform List<scalar> 
25
(
2.73089e-12
4.88136e-12
5.47131e-12
4.88136e-12
2.73089e-12
4.88136e-12
9.58198e-12
1.09712e-11
9.58198e-12
4.88136e-12
5.47131e-12
1.09712e-11
1.26269e-11
1.09712e-11
5.47131e-12
4.88136e-12
9.58198e-12
1.09712e-11
9.58198e-12
4.88136e-12
2.73089e-12
4.88136e-12
5.47131e-12
4.88136e-12
2.73089e-12
)
;
    }
    Walls
    {
        type            calculated;
        value           uniform 0;
    }
}


// ************************************************************************* //
