/*--------------------------------*- C++ -*----------------------------------*\
  =========                 |
  \\      /  F ield         | OpenFOAM: The Open Source CFD Toolbox
   \\    /   O peration     | Website:  https://openfoam.org
    \\  /    A nd           | Version:  13
     \\/     M anipulation  |
\*---------------------------------------------------------------------------*/
FoamFile
{
    format      ascii;
    class       volVectorField;
    location    "35";
    object      U;
}
// * * * * * * * * * * * * * * * * * * * * * * * * * * * * * * * * * * * * * //

dimensions      [0 1 -1 0 0 0 0];

internalField   nonuniform List<vector> 
500
(
(0.00479107 5.57091e-05 5.57091e-05)
(0.00763934 7.2589e-06 7.25891e-06)
(0.00651222 -2.77728e-06 -2.77728e-06)
(0.00694677 1.04837e-06 1.04837e-06)
(0.00678201 -3.97013e-07 -3.97012e-07)
(0.00684445 1.50228e-07 1.50224e-07)
(0.00682083 -5.69403e-08 -5.69401e-08)
(0.00682967 2.20469e-08 2.20452e-08)
(0.00682644 -9.38706e-09 -9.40199e-09)
(0.00682736 5.5971e-09 5.5626e-09)
(0.00682706 -4.594e-09 -4.55223e-09)
(0.00682707 4.37027e-09 4.31881e-09)
(0.00682701 -4.25884e-09 -4.18521e-09)
(0.00682714 3.71336e-09 3.67248e-09)
(0.00682696 -3.01691e-09 -2.94944e-09)
(0.0068273 1.8043e-09 1.8229e-09)
(0.00682714 -1.07167e-09 -1.09357e-09)
(0.00682725 7.26214e-10 7.36092e-10)
(0.00682724 -6.76117e-10 -6.79858e-10)
(0.00682727 5.75966e-10 5.9323e-10)
(0.00853782 7.78882e-05 7.97309e-05)
(0.0136408 7.01274e-06 1.28846e-05)
(0.01165 -2.59311e-06 -4.90008e-06)
(0.0124134 9.54609e-07 1.83512e-06)
(0.0121239 -3.61312e-07 -6.91903e-07)
(0.0122337 1.36467e-07 2.60824e-07)
(0.0121921 -5.1555e-08 -9.82625e-08)
(0.0122077 2.00975e-08 3.86478e-08)
(0.012202 -8.85468e-09 -1.6953e-08)
(0.0122037 5.99858e-09 1.48176e-08)
(0.0122031 -5.5875e-09 -1.35465e-08)
(0.0122031 5.42508e-09 1.44036e-08)
(0.012203 -5.59849e-09 -1.40054e-08)
(0.0122032 4.65221e-09 1.24508e-08)
(0.012203 -4.03506e-09 -1.04285e-08)
(0.0122035 2.12503e-09 4.92437e-09)
(0.0122032 -1.19366e-09 -3.17498e-09)
(0.0122034 8.1385e-10 2.03127e-09)
(0.0122034 -8.22492e-10 -2.69168e-09)
(0.0122034 7.46972e-10 1.75809e-09)
(0.00956084 4.85794e-11 7.7598e-05)
(0.0152849 1.39193e-10 1.395e-05)
(0.0130616 -1.86166e-10 -5.30919e-06)
(0.0139123 2.67446e-10 1.98603e-06)
(0.0135897 -2.52397e-10 -7.48328e-07)
(0.013712 4.80149e-11 2.8173e-07)
(0.0136657 -1.14372e-10 -1.05929e-07)
(0.0136831 -2.34417e-10 4.16608e-08)
(0.0136767 -2.71034e-10 -1.87835e-08)
(0.0136786 -2.22944e-09 1.60614e-08)
(0.0136779 1.45264e-09 -1.52414e-08)
(0.013678 -2.86497e-09 1.59157e-08)
(0.0136779 2.24173e-09 -1.56974e-08)
(0.0136781 -2.31241e-09 1.38322e-08)
(0.0136778 2.06232e-09 -1.15843e-08)
(0.0136784 -2.23432e-10 5.84436e-09)
(0.0136781 6.07758e-10 -3.66938e-09)
(0.0136783 1.81334e-11 2.50842e-09)
(0.0136783 4.41246e-10 -2.88423e-09)
(0.0136783 -9.82244e-11 2.0632e-09)
(0.00853782 -7.78882e-05 7.97309e-05)
(0.0136408 -7.01253e-06 1.28847e-05)
(0.01165 2.59283e-06 -4.90018e-06)
(0.0124134 -9.54245e-07 1.83538e-06)
(0.0121239 3.61008e-07 -6.9222e-07)
(0.0122337 -1.36439e-07 2.60835e-07)
(0.0121921 5.13388e-08 -9.82559e-08)
(0.0122077 -2.04562e-08 3.84611e-08)
(0.012202 8.4541e-09 -1.71337e-08)
(0.0122037 -9.40189e-09 1.35319e-08)
(0.0122031 7.92436e-09 -1.26023e-08)
(0.0122031 -9.83471e-09 1.29238e-08)
(0.012203 9.22336e-09 -1.27192e-08)
(0.0122032 -8.16816e-09 1.12043e-08)
(0.012203 7.3649e-09 -9.2403e-09)
(0.0122035 -2.42879e-09 4.86691e-09)
(0.0122032 2.09074e-09 -2.9697e-09)
(0.0122034 -7.57363e-10 2.00348e-09)
(0.0122034 1.45182e-09 -2.32088e-09)
(0.0122034 -9.22916e-10 1.70579e-09)
(0.00479107 -5.57091e-05 5.57093e-05)
(0.00763934 -7.25881e-06 7.25908e-06)
(0.00651222 2.77721e-06 -2.77735e-06)
(0.00694677 -1.04828e-06 1.04846e-06)
(0.00678201 3.9695e-07 -3.9714e-07)
(0.00684445 -1.50243e-07 1.50259e-07)
(0.00682083 5.68283e-08 -5.70247e-08)
(0.00682967 -2.2168e-08 2.19884e-08)
(0.00682644 9.24463e-09 -9.54977e-09)
(0.00682736 -6.81123e-09 4.95534e-09)
(0.00682706 5.51284e-09 -4.05403e-09)
(0.00682707 -5.97762e-09 3.53654e-09)
(0.00682701 5.68697e-09 -3.40004e-09)
(0.00682714 -4.96733e-09 3.07483e-09)
(0.00682696 4.31078e-09 -2.24123e-09)
(0.0068273 -1.87789e-09 1.87876e-09)
(0.00682714 1.34453e-09 -1.03908e-09)
(0.00682725 -6.61295e-10 8.22141e-10)
(0.00682724 8.68102e-10 -5.53835e-10)
(0.00682727 -6.47323e-10 5.42827e-10)
(0.00853782 7.97309e-05 7.78882e-05)
(0.0136408 1.28846e-05 7.01277e-06)
(0.01165 -4.90009e-06 -2.59307e-06)
(0.0124134 1.83513e-06 9.5459e-07)
(0.0121239 -6.91905e-07 -3.61305e-07)
(0.0122337 2.60829e-07 1.36462e-07)
(0.0121921 -9.82605e-08 -5.15621e-08)
(0.0122077 3.86489e-08 2.01009e-08)
(0.012202 -1.69166e-08 -8.92845e-09)
(0.0122037 1.48991e-08 5.84227e-09)
(0.0122031 -1.36591e-08 -5.33751e-09)
(0.0122031 1.45165e-08 5.21993e-09)
(0.012203 -1.41843e-08 -5.22889e-09)
(0.0122032 1.25417e-08 4.4843e-09)
(0.012203 -1.05933e-08 -3.69203e-09)
(0.0122035 4.87592e-09 2.22921e-09)
(0.0122032 -3.12143e-09 -1.30854e-09)
(0.0122034 2.00777e-09 8.60861e-10)
(0.0122034 -2.68235e-09 -8.42124e-10)
(0.0122034 1.71416e-09 8.46774e-10)
(0.0167064 0.000120991 0.000120991)
(0.0267504 1.21595e-05 1.21595e-05)
(0.022892 -4.45066e-06 -4.45061e-06)
(0.0243583 1.61697e-06 1.61694e-06)
(0.023802 -6.14377e-07 -6.14354e-07)
(0.024013 2.32554e-07 2.3254e-07)
(0.023933 -8.81915e-08 -8.8195e-08)
(0.0239632 3.41788e-08 3.41787e-08)
(0.023952 -1.53366e-08 -1.53945e-08)
(0.0239555 7.72446e-09 7.49088e-09)
(0.0239543 -7.06749e-09 -6.67745e-09)
(0.0239545 6.24652e-09 5.92976e-09)
(0.0239543 -6.60112e-09 -6.03841e-09)
(0.0239546 5.39048e-09 5.12392e-09)
(0.0239542 -4.42823e-09 -3.91187e-09)
(0.023955 3.50394e-09 3.61184e-09)
(0.0239546 -1.88784e-09 -2.02203e-09)
(0.0239549 1.35647e-09 1.38788e-09)
(0.0239549 -6.36486e-10 -6.61483e-10)
(0.0239549 1.05863e-09 1.2079e-09)
(0.0191106 6.82608e-10 0.000128355)
(0.0306205 -1.27772e-10 1.3328e-05)
(0.0262198 -4.93848e-10 -4.87064e-06)
(0.0278867 5.25933e-10 1.76098e-06)
(0.0272542 -1.40962e-10 -6.68117e-07)
(0.0274941 -1.1906e-10 2.52431e-07)
(0.0274031 -1.46612e-10 -9.55879e-08)
(0.0274374 -5.18964e-10 3.70688e-08)
(0.0274247 -2.50836e-10 -1.68367e-08)
(0.0274287 -4.20056e-09 8.94741e-09)
(0.0274273 2.90045e-09 -8.48934e-09)
(0.0274276 -5.3321e-09 7.85386e-09)
(0.0274273 4.47701e-09 -7.91462e-09)
(0.0274277 -4.27794e-09 6.85947e-09)
(0.0274272 4.2472e-09 -4.98895e-09)
(0.0274281 -5.76273e-10 4.24141e-09)
(0.0274277 1.41543e-09 -2.05522e-09)
(0.027428 -2.96032e-10 1.29685e-09)
(0.027428 8.00023e-10 -1.02224e-09)
(0.027428 -2.88736e-10 1.49843e-09)
(0.0167064 -0.00012099 0.00012099)
(0.0267504 -1.21594e-05 1.21593e-05)
(0.022892 4.45002e-06 -4.45062e-06)
(0.0243583 -1.61622e-06 1.6169e-06)
(0.023802 6.1385e-07 -6.14204e-07)
(0.024013 -2.32566e-07 2.32549e-07)
(0.023933 8.79705e-08 -8.81957e-08)
(0.0239632 -3.49562e-08 3.41614e-08)
(0.023952 1.46537e-08 -1.56125e-08)
(0.0239555 -1.43035e-08 7.80454e-09)
(0.0239543 1.15576e-08 -7.17591e-09)
(0.0239545 -1.44951e-08 6.45278e-09)
(0.0239543 1.34901e-08 -6.37433e-09)
(0.0239546 -1.20147e-08 5.65924e-09)
(0.0239542 1.09221e-08 -3.96708e-09)
(0.023955 -4.06495e-09 3.81727e-09)
(0.0239546 3.72151e-09 -1.86078e-09)
(0.0239549 -1.49934e-09 1.28584e-09)
(0.0239549 1.97384e-09 -6.58283e-10)
(0.0239549 -1.49541e-09 1.11951e-09)
(0.00853782 -7.97307e-05 7.78888e-05)
(0.0136408 -1.28844e-05 7.0127e-06)
(0.01165 4.89992e-06 -2.59333e-06)
(0.0124134 -1.83504e-06 9.54843e-07)
(0.0121239 6.91945e-07 -3.61347e-07)
(0.0122337 -2.60846e-07 1.3639e-07)
(0.0121921 9.79743e-08 -5.15864e-08)
(0.0122077 -3.88115e-08 1.99319e-08)
(0.012202 1.66475e-08 -9.00136e-09)
(0.0122037 -1.68441e-08 5.0295e-09)
(0.0122031 1.51455e-08 -4.72619e-09)
(0.0122031 -1.7203e-08 4.31004e-09)
(0.012203 1.66977e-08 -4.22046e-09)
(0.0122032 -1.45417e-08 3.78878e-09)
(0.012203 1.29024e-08 -2.626e-09)
(0.0122035 -4.928e-09 2.14413e-09)
(0.0122032 3.63179e-09 -9.271e-10)
(0.0122034 -1.85227e-09 6.55463e-10)
(0.0122034 2.90049e-09 -6.15886e-10)
(0.0122034 -1.88667e-09 7.00145e-10)
(0.00956084 7.7598e-05 5.85681e-11)
(0.0152849 1.395e-05 1.2763e-10)
(0.0130616 -5.30919e-06 -1.48102e-10)
(0.0139123 1.98602e-06 2.35479e-10)
(0.0135897 -7.48352e-07 -2.31172e-10)
(0.013712 2.81761e-07 3.5346e-11)
(0.0136657 -1.05955e-07 -1.16424e-10)
(0.0136831 4.16799e-08 -2.32523e-10)
(0.0136767 -1.8839e-08 -2.99437e-10)
(0.0136786 1.60095e-08 -2.37532e-09)
(0.0136779 -1.51085e-08 1.72483e-09)
(0.013678 1.58956e-08 -3.06456e-09)
(0.0136779 -1.55929e-08 2.62225e-09)
(0.0136781 1.38073e-08 -2.48313e-09)
(0.0136778 -1.14872e-08 2.40941e-09)
(0.0136784 5.89775e-09 -1.5929e-10)
(0.0136781 -3.70795e-09 5.17279e-10)
(0.0136783 2.55419e-09 3.48487e-11)
(0.0136783 -2.89346e-09 4.28463e-10)
(0.0136783 2.06888e-09 4.06083e-12)
(0.0191106 0.000128355 6.49623e-10)
(0.0306205 1.3328e-05 -1.0067e-10)
(0.0262198 -4.8707e-06 -4.50422e-10)
(0.0278867 1.76102e-06 4.93467e-10)
(0.0272542 -6.68122e-07 -1.2816e-10)
(0.0274941 2.52427e-07 -1.31304e-10)
(0.0274031 -9.55656e-08 -1.50542e-10)
(0.0274374 3.7057e-08 -5.12423e-10)
(0.0274247 -1.67137e-08 -3.60818e-10)
(0.0274287 9.2695e-09 -4.31915e-09)
(0.0274273 -9.03786e-09 3.14476e-09)
(0.0274276 8.25844e-09 -5.47589e-09)
(0.0274273 -8.66678e-09 4.87199e-09)
(0.0274277 7.20091e-09 -4.38431e-09)
(0.0274272 -5.68186e-09 4.63148e-09)
(0.0274281 4.05892e-09 -4.02289e-10)
(0.0274277 -1.85548e-09 1.24067e-09)
(0.027428 1.21857e-09 -2.33113e-10)
(0.027428 -9.84103e-10 7.71432e-10)
(0.027428 1.31168e-09 -1.29821e-10)
(0.0219738 2.47755e-10 2.62839e-10)
(0.0352324 1.50328e-10 1.28072e-10)
(0.0301874 -5.99565e-10 -5.37171e-10)
(0.0320911 7.045e-10 6.54197e-10)
(0.0313687 -4.26489e-10 -3.92611e-10)
(0.0316427 6.77596e-12 -1.31997e-11)
(0.0315388 -2.08713e-10 -2.10685e-10)
(0.0315779 -6.24279e-10 -6.21517e-10)
(0.0315634 -7.98964e-10 -8.57587e-10)
(0.0315681 -4.84914e-09 -5.09707e-09)
(0.0315664 2.98965e-09 3.45024e-09)
(0.0315667 -5.88704e-09 -6.22026e-09)
(0.0315664 4.94598e-09 5.60461e-09)
(0.0315668 -4.61655e-09 -4.89754e-09)
(0.0315663 4.89077e-09 5.49816e-09)
(0.0315673 -2.04372e-10 -7.13519e-11)
(0.0315669 1.5302e-09 1.36132e-09)
(0.0315672 -1.84891e-10 -1.56874e-10)
(0.0315672 1.10474e-09 1.07754e-09)
(0.0315672 -3.94057e-10 -1.99705e-10)
(0.0191106 -0.000128354 1.50364e-10)
(0.0306205 -1.33287e-05 6.92031e-11)
(0.0262198 4.86983e-06 -3.62954e-10)
(0.0278867 -1.75996e-06 4.38325e-10)
(0.0272542 6.67855e-07 -2.50872e-10)
(0.0274941 -2.52834e-07 1.3164e-11)
(0.0274031 9.54674e-08 -1.94414e-10)
(0.0274374 -3.82048e-08 -4.79724e-10)
(0.0274247 1.61729e-08 -7.39001e-10)
(0.0274287 -1.74815e-08 -3.84744e-09)
(0.0274273 1.46355e-08 2.52172e-09)
(0.0274276 -1.82637e-08 -4.6879e-09)
(0.0274273 1.72207e-08 4.28144e-09)
(0.0274277 -1.52398e-08 -3.63519e-09)
(0.0274272 1.40058e-08 4.27435e-09)
(0.0274281 -5.09278e-09 4.09249e-11)
(0.0274277 4.67535e-09 1.07708e-09)
(0.027428 -2.00899e-09 -1.1206e-10)
(0.027428 2.75479e-09 8.27493e-10)
(0.027428 -1.9738e-09 -2.25048e-10)
(0.00956084 -7.75989e-05 4.24146e-10)
(0.0152849 -1.39486e-05 -1.46035e-11)
(0.0130616 5.30932e-06 -3.8104e-10)
(0.0139123 -1.9862e-06 4.20938e-10)
(0.0135897 7.47828e-07 -1.64841e-10)
(0.013712 -2.81251e-07 -6.90921e-11)
(0.0136657 1.05318e-07 -5.18386e-11)
(0.0136831 -4.15966e-08 -3.1993e-10)
(0.0136767 1.78074e-08 -3.20495e-10)
(0.0136786 -1.78148e-08 -2.19931e-09)
(0.0136779 1.6421e-08 1.52482e-09)
(0.013678 -1.86629e-08 -2.60883e-09)
(0.0136779 1.81171e-08 2.44884e-09)
(0.0136781 -1.5716e-08 -2.06431e-09)
(0.0136778 1.35287e-08 2.46443e-09)
(0.0136784 -5.09457e-09 -1.19586e-10)
(0.0136781 3.30281e-09 7.09928e-10)
(0.0136783 -1.35678e-09 -2.15535e-10)
(0.0136783 3.03754e-09 4.9712e-10)
(0.0136783 -2.16965e-09 -1.10177e-10)
(0.00853782 7.9731e-05 -7.78882e-05)
(0.0136408 1.28846e-05 -7.01257e-06)
(0.01165 -4.90017e-06 2.59283e-06)
(0.0124134 1.83536e-06 -9.54254e-07)
(0.0121239 -6.92208e-07 3.6102e-07)
(0.0122337 2.60849e-07 -1.36448e-07)
(0.0121921 -9.82627e-08 5.13458e-08)
(0.0122077 3.8471e-08 -2.04584e-08)
(0.012202 -1.70578e-08 8.48469e-09)
(0.0122037 1.34943e-08 -9.36677e-09)
(0.0122031 -1.24659e-08 7.90128e-09)
(0.0122031 1.28845e-08 -9.79765e-09)
(0.012203 -1.26397e-08 9.19337e-09)
(0.0122032 1.11434e-08 -8.13935e-09)
(0.012203 -9.18159e-09 7.33695e-09)
(0.0122035 4.78777e-09 -2.4527e-09)
(0.0122032 -2.91902e-09 2.10442e-09)
(0.0122034 1.95337e-09 -7.78993e-10)
(0.0122034 -2.31568e-09 1.45717e-09)
(0.0122034 1.70261e-09 -9.18427e-10)
(0.0167064 0.00012099 -0.00012099)
(0.0267504 1.21594e-05 -1.21594e-05)
(0.022892 -4.45066e-06 4.45005e-06)
(0.0243583 1.61693e-06 -1.61624e-06)
(0.023802 -6.14223e-07 6.13866e-07)
(0.024013 2.32551e-07 -2.32565e-07)
(0.023933 -8.81855e-08 8.7963e-08)
(0.0239632 3.41583e-08 -3.49477e-08)
(0.023952 -1.5574e-08 1.46456e-08)
(0.0239555 8.07752e-09 -1.44188e-08)
(0.0239543 -7.64095e-09 1.18097e-08)
(0.0239545 6.81472e-09 -1.4638e-08)
(0.0239543 -6.99659e-09 1.37949e-08)
(0.0239546 5.9749e-09 -1.2146e-08)
(0.0239542 -4.53248e-09 1.11996e-08)
(0.023955 3.73481e-09 -4.02827e-09)
(0.0239546 -1.74634e-09 3.66064e-09)
(0.0239549 1.26736e-09 -1.49763e-09)
(0.0239549 -6.31972e-10 1.9614e-09)
(0.0239549 9.74473e-10 -1.41111e-09)
(0.0191106 1.83828e-10 -0.000128354)
(0.0306205 4.15403e-11 -1.33287e-05)
(0.0262198 -4.07054e-10 4.86986e-06)
(0.0278867 4.71228e-10 -1.76e-06)
(0.0272542 -2.63777e-10 6.67883e-07)
(0.0274941 2.5718e-11 -2.52847e-07)
(0.0274031 -1.90261e-10 9.54685e-08)
(0.0274374 -4.86149e-10 -3.8202e-08)
(0.0274247 -6.27114e-10 1.61649e-08)
(0.0274287 -3.72352e-09 -1.7591e-08)
(0.0274273 2.26993e-09 1.48692e-08)
(0.0274276 -4.53694e-09 -1.84134e-08)
(0.0274273 3.87506e-09 1.75386e-08)
(0.0274277 -3.52309e-09 -1.5371e-08)
(0.0274272 3.87974e-09 1.42993e-08)
(0.0274281 -1.35768e-10 -5.04749e-09)
(0.0274277 1.25464e-09 4.60355e-09)
(0.027428 -1.76335e-10 -2.01114e-09)
(0.027428 8.56384e-10 2.74161e-09)
(0.027428 -3.86115e-10 -1.87284e-09)
(0.0167064 -0.00012099 -0.00012099)
(0.0267504 -1.21603e-05 -1.21603e-05)
(0.022892 4.45004e-06 4.45007e-06)
(0.0243583 -1.61617e-06 -1.61619e-06)
(0.023802 6.14192e-07 6.14209e-07)
(0.024013 -2.32973e-07 -2.32982e-07)
(0.023933 8.81839e-08 8.81843e-08)
(0.0239632 -3.51236e-08 -3.51199e-08)
(0.023952 1.50527e-08 1.50283e-08)
(0.0239555 -1.45268e-08 -1.46011e-08)
(0.0239543 1.19147e-08 1.20861e-08)
(0.0239545 -1.45264e-08 -1.46246e-08)
(0.0239543 1.36997e-08 1.39441e-08)
(0.0239546 -1.21243e-08 -1.22075e-08)
(0.0239542 1.12381e-08 1.14681e-08)
(0.023955 -4.4773e-09 -4.41759e-09)
(0.0239546 4.11998e-09 4.04373e-09)
(0.0239549 -2.00892e-09 -1.99861e-09)
(0.0239549 2.07032e-09 2.05819e-09)
(0.0239549 -1.56367e-09 -1.47442e-09)
(0.00853782 -7.97316e-05 -7.78882e-05)
(0.0136408 -1.28834e-05 -7.01249e-06)
(0.01165 4.90038e-06 2.59291e-06)
(0.0124134 -1.83559e-06 -9.54363e-07)
(0.0121239 6.91752e-07 3.61048e-07)
(0.0122337 -2.60382e-07 -1.36412e-07)
(0.0121921 9.76923e-08 5.13848e-08)
(0.0122077 -3.83931e-08 -2.03449e-08)
(0.012202 1.63723e-08 8.46402e-09)
(0.0122037 -1.51648e-08 -8.40007e-09)
(0.0122031 1.38527e-08 7.17118e-09)
(0.0122031 -1.5547e-08 -8.50924e-09)
(0.012203 1.5038e-08 8.13276e-09)
(0.0122032 -1.30663e-08 -7.07586e-09)
(0.012203 1.10239e-08 6.38086e-09)
(0.0122035 -4.27233e-09 -2.22406e-09)
(0.0122032 2.57624e-09 1.7722e-09)
(0.0122034 -9.44421e-10 -6.87957e-10)
(0.0122034 2.42701e-09 1.29066e-09)
(0.0122034 -1.81844e-09 -8.82078e-10)
(0.00479107 5.57093e-05 -5.57091e-05)
(0.00763934 7.25907e-06 -7.25881e-06)
(0.00651222 -2.77736e-06 2.7772e-06)
(0.00694677 1.04846e-06 -1.04827e-06)
(0.00678201 -3.97142e-07 3.96946e-07)
(0.00684445 1.50264e-07 -1.5024e-07)
(0.00682083 -5.70238e-08 5.68305e-08)
(0.00682967 2.19897e-08 -2.21673e-08)
(0.00682644 -9.52787e-09 9.24823e-09)
(0.00682736 5.00135e-09 -6.74676e-09)
(0.00682706 -4.11891e-09 5.41855e-09)
(0.00682707 3.60065e-09 -5.888e-09)
(0.00682701 -3.50549e-09 5.56165e-09)
(0.00682714 3.12535e-09 -4.88968e-09)
(0.00682696 -2.33795e-09 4.20141e-09)
(0.0068273 1.84927e-09 -1.88429e-09)
(0.00682714 -1.00717e-09 1.35963e-09)
(0.00682725 8.07198e-10 -6.64999e-10)
(0.00682724 -5.49062e-10 8.71136e-10)
(0.00682727 5.17078e-10 -6.6535e-10)
(0.00853782 7.78888e-05 -7.97307e-05)
(0.0136408 7.0127e-06 -1.28844e-05)
(0.01165 -2.59336e-06 4.89988e-06)
(0.0124134 9.54863e-07 -1.83501e-06)
(0.0121239 -3.61357e-07 6.91925e-07)
(0.0122337 1.36397e-07 -2.60852e-07)
(0.0121921 -5.15825e-08 9.79881e-08)
(0.0122077 1.99306e-08 -3.88194e-08)
(0.012202 -8.96484e-09 1.6622e-08)
(0.0122037 5.1555e-09 -1.66209e-08)
(0.0122031 -4.94018e-09 1.4741e-08)
(0.0122031 4.47921e-09 -1.69107e-08)
(0.012203 -4.52457e-09 1.62319e-08)
(0.0122032 3.93081e-09 -1.42703e-08)
(0.012203 -2.90296e-09 1.2497e-08)
(0.0122035 2.08214e-09 -4.91803e-09)
(0.0122032 -8.49942e-10 3.66493e-09)
(0.0122034 6.31638e-10 -1.83794e-09)
(0.0122034 -6.04293e-10 2.90951e-09)
(0.0122034 6.23806e-10 -1.95811e-09)
(0.00956084 4.13141e-10 -7.75989e-05)
(0.0152849 -3.49727e-13 -1.39486e-05)
(0.0130616 -4.11417e-10 5.30931e-06)
(0.0139123 4.47003e-10 -1.98619e-06)
(0.0135897 -1.83242e-10 7.4781e-07)
(0.013712 -6.02464e-11 -2.81247e-07)
(0.0136657 -5.1183e-11 1.05319e-07)
(0.0136831 -3.22899e-10 -4.15976e-08)
(0.0136767 -3.03267e-10 1.77736e-08)
(0.0136786 -2.10031e-09 -1.7751e-08)
(0.0136779 1.32234e-09 1.62956e-08)
(0.013678 -2.47405e-09 -1.85726e-08)
(0.0136779 2.16933e-09 1.79809e-08)
(0.0136781 -1.94739e-09 -1.56282e-08)
(0.0136778 2.2076e-09 1.34118e-08)
(0.0136784 -1.67656e-10 -5.06367e-09)
(0.0136781 7.80034e-10 3.29263e-09)
(0.0136783 -2.23749e-10 -1.3328e-09)
(0.0136783 5.06947e-10 3.03921e-09)
(0.0136783 -1.93242e-10 -2.18974e-09)
(0.00853782 -7.78882e-05 -7.97316e-05)
(0.0136408 -7.01248e-06 -1.28834e-05)
(0.01165 2.5929e-06 4.90038e-06)
(0.0124134 -9.54354e-07 -1.83558e-06)
(0.0121239 3.61039e-07 6.91752e-07)
(0.0122337 -1.36404e-07 -2.60384e-07)
(0.0121921 5.13808e-08 9.76949e-08)
(0.0122077 -2.03448e-08 -3.8394e-08)
(0.012202 8.47075e-09 1.63671e-08)
(0.0122037 -8.40694e-09 -1.51365e-08)
(0.0122031 7.16178e-09 1.38094e-08)
(0.0122031 -8.51323e-09 -1.55115e-08)
(0.012203 8.10164e-09 1.49941e-08)
(0.0122032 -7.08136e-09 -1.30331e-08)
(0.012203 6.34647e-09 1.09882e-08)
(0.0122035 -2.24237e-09 -4.26573e-09)
(0.0122032 1.79573e-09 2.57265e-09)
(0.0122034 -6.89448e-10 -9.42255e-10)
(0.0122034 1.29323e-09 2.4273e-09)
(0.0122034 -9.09209e-10 -1.81816e-09)
(0.00479107 -5.57091e-05 -5.57091e-05)
(0.00763934 -7.25882e-06 -7.25882e-06)
(0.00651222 2.77728e-06 2.77728e-06)
(0.00694677 -1.04837e-06 -1.04837e-06)
(0.00678201 3.96989e-07 3.96987e-07)
(0.00684445 -1.50208e-07 -1.50209e-07)
(0.00682083 5.6864e-08 5.68656e-08)
(0.00682967 -2.20846e-08 -2.20853e-08)
(0.00682644 9.32159e-09 9.3183e-09)
(0.00682736 -6.18212e-09 -6.16002e-09)
(0.00682706 5.03879e-09 5.00126e-09)
(0.00682707 -5.18775e-09 -5.15967e-09)
(0.00682701 4.94872e-09 4.90749e-09)
(0.00682714 -4.34503e-09 -4.31904e-09)
(0.00682696 3.61119e-09 3.57609e-09)
(0.0068273 -1.83245e-09 -1.83017e-09)
(0.00682714 1.17719e-09 1.17795e-09)
(0.00682725 -6.39022e-10 -6.37156e-10)
(0.00682724 7.44581e-10 7.45345e-10)
(0.00682727 -6.17733e-10 -6.22224e-10)
)
;

boundaryField
{
    inlet
    {
        type            fixedValue;
        value           uniform (0.01667 0 0);
    }
    outlet
    {
        type            zeroGradient;
    }
    Walls
    {
        type            noSlip;
    }
}


// ************************************************************************* //
