/*--------------------------------*- C++ -*----------------------------------*\
  =========                 |
  \\      /  F ield         | OpenFOAM: The Open Source CFD Toolbox
   \\    /   O peration     | Website:  https://openfoam.org
    \\  /    A nd           | Version:  13
     \\/     M anipulation  |
\*---------------------------------------------------------------------------*/
FoamFile
{
    format      ascii;
    class       surfaceScalarField;
    location    "34";
    object      phi;
}
// * * * * * * * * * * * * * * * * * * * * * * * * * * * * * * * * * * * * * //

dimensions      [0 3 -1 0 0 0 0];

internalField   nonuniform List<scalar> 
1275
(
2.99063e-11
1.83869e-11
1.83869e-11
2.64078e-11
1.74925e-12
1.74925e-12
2.75866e-11
-5.89421e-13
-5.89417e-13
2.72144e-11
1.86108e-13
1.86106e-13
2.73414e-11
-6.34806e-14
-6.34807e-14
2.72983e-11
2.15295e-14
2.15294e-14
2.73129e-11
-7.3119e-15
-7.31321e-15
2.73075e-11
2.63754e-15
2.63808e-15
2.73098e-11
-1.17045e-15
-1.17983e-15
2.73071e-11
1.1261e-15
1.11044e-15
2.73098e-11
-1.18761e-15
-1.16293e-15
2.73065e-11
1.3223e-15
1.29878e-15
2.73097e-11
-1.33976e-15
-1.30103e-15
2.73069e-11
1.15964e-15
1.14057e-15
2.73094e-11
-9.95823e-16
-9.60567e-16
2.73084e-11
4.94405e-16
5.04573e-16
2.73091e-11
-2.92791e-16
-3.06391e-16
2.73088e-11
1.61384e-16
1.68703e-16
2.73092e-11
-1.82736e-16
-1.84969e-16
1.56207e-16
1.66206e-16
5.03019e-11
8.18414e-12
2.6581e-11
4.83036e-11
9.24898e-13
2.82265e-12
4.8956e-11
-3.1059e-13
-9.3127e-13
4.87654e-11
9.61753e-14
2.80636e-13
4.88305e-11
-3.28709e-14
-9.58189e-14
4.88084e-11
1.11268e-14
3.24036e-14
4.88158e-11
-3.78551e-15
-1.09621e-14
4.88129e-11
1.31341e-15
4.03862e-15
4.88142e-11
-6.59133e-16
-1.96569e-15
4.88114e-11
1.91822e-16
2.21277e-15
4.88142e-11
-3.75839e-16
-2.43885e-15
4.88105e-11
1.98162e-16
2.79699e-15
4.88141e-11
-3.17633e-16
-2.79611e-15
4.8811e-11
2.14194e-16
2.47281e-15
4.88138e-11
-1.64287e-16
-2.06325e-15
4.88129e-11
2.20485e-16
1.09213e-15
4.88136e-11
-3.83635e-17
-6.5905e-16
4.88134e-11
8.50356e-17
3.59189e-16
4.88139e-11
-2.04236e-17
-4.04118e-16
6.77439e-17
3.52656e-16
5.5585e-11
-8.18415e-12
2.74634e-11
5.44146e-11
-9.2485e-13
3.02021e-12
5.47914e-11
3.10519e-13
-9.98016e-13
5.4687e-11
-9.60807e-14
2.96813e-13
5.47225e-11
3.27716e-14
-1.01264e-13
5.47105e-11
-1.11121e-14
3.4134e-14
5.47144e-11
3.74964e-15
-1.1501e-14
5.47127e-11
-1.41124e-15
4.25196e-15
5.47136e-11
5.5468e-16
-2.20811e-15
5.47108e-11
-1.01695e-15
2.46943e-15
5.47136e-11
9.34772e-16
-2.89628e-15
5.47099e-11
-1.26334e-15
3.24704e-15
5.47134e-11
1.16797e-15
-3.29465e-15
5.47104e-11
-1.07273e-15
2.89545e-15
5.47132e-11
9.41467e-16
-2.3929e-15
5.47124e-11
-3.2372e-16
1.33412e-15
5.47131e-11
2.69104e-16
-7.45798e-16
5.47129e-11
-8.36818e-17
4.25384e-16
5.47134e-11
1.79214e-16
-4.59288e-16
-1.01287e-16
4.31719e-16
5.03019e-11
-1.83868e-11
2.65809e-11
4.83036e-11
-1.74921e-12
2.82266e-12
4.8956e-11
5.89371e-13
-9.31269e-13
4.87654e-11
-1.8605e-13
2.80652e-13
4.88305e-11
6.34279e-14
-9.58563e-14
4.88084e-11
-2.15333e-14
3.24156e-14
4.88158e-11
7.27717e-15
-1.09704e-14
4.88129e-11
-2.69943e-15
4.01158e-15
4.88142e-11
1.10961e-15
-2.01571e-15
4.88114e-11
-1.64243e-15
1.99885e-15
4.88142e-11
1.57911e-15
-2.28001e-15
4.88105e-11
-1.98633e-15
2.52199e-15
4.88141e-11
1.92794e-15
-2.55097e-15
4.8811e-11
-1.68204e-15
2.24908e-15
4.88138e-11
1.5306e-15
-1.83881e-15
4.88129e-11
-5.40329e-16
1.0876e-15
4.88136e-11
4.16339e-16
-6.2501e-16
4.88134e-11
-1.50864e-16
3.73821e-16
4.88139e-11
2.77724e-16
-3.5425e-16
-1.85632e-16
3.42297e-16
2.99063e-11
1.83869e-11
2.64078e-11
1.74928e-12
2.75866e-11
-5.89449e-13
2.72144e-11
1.86141e-13
2.73414e-11
-6.35152e-14
2.72983e-11
2.15287e-14
2.73129e-11
-7.33546e-15
2.73075e-11
2.60596e-15
2.73098e-11
-1.22382e-15
2.73071e-11
8.52125e-16
2.73098e-11
-9.48243e-16
2.73065e-11
9.69378e-16
2.73097e-11
-9.71777e-16
2.73069e-11
8.84214e-16
2.73094e-11
-6.56436e-16
2.73084e-11
4.97233e-16
2.73091e-11
-2.54236e-16
2.73088e-11
1.76503e-16
2.73092e-11
-1.31911e-16
1.42525e-16
5.03019e-11
2.6581e-11
8.18414e-12
4.83036e-11
2.82265e-12
9.24901e-13
4.8956e-11
-9.31278e-13
-3.10581e-13
4.87654e-11
2.80641e-13
9.61691e-14
4.88305e-11
-9.58229e-14
-3.28675e-14
4.88084e-11
3.2406e-14
1.1125e-14
4.88158e-11
-1.09608e-14
-3.78739e-15
4.88129e-11
4.03824e-15
1.31487e-15
4.88142e-11
-1.95829e-15
-6.73267e-16
4.88114e-11
2.25351e-15
1.55058e-16
4.88142e-11
-2.50508e-15
-3.11177e-16
4.88105e-11
2.8499e-15
1.49337e-16
4.88141e-11
-2.88566e-15
-2.26584e-16
4.8811e-11
2.51802e-15
1.73046e-16
4.88138e-11
-2.14498e-15
-7.97892e-17
4.88129e-11
1.07869e-15
2.40926e-16
4.88136e-11
-6.40867e-16
-6.48435e-17
4.88134e-11
3.55065e-16
9.4117e-17
4.88139e-11
-4.02133e-16
-2.39869e-17
3.34063e-16
9.22087e-17
9.3991e-11
1.29256e-11
1.29256e-11
9.6453e-11
1.59173e-12
1.59173e-12
9.56268e-11
-5.18313e-13
-5.18304e-13
9.58857e-11
1.51324e-13
1.51317e-13
9.5798e-11
-5.21161e-14
-5.21123e-14
9.58273e-11
1.77279e-14
1.77243e-14
9.58173e-11
-6.06126e-15
-6.06315e-15
9.58207e-11
2.08272e-15
2.08373e-15
9.58184e-11
-9.75403e-16
-9.93156e-16
9.58186e-11
1.87927e-16
1.5404e-16
9.58174e-11
-3.98289e-16
-3.40566e-16
9.58179e-11
1.19749e-16
7.30467e-17
9.58172e-11
-2.62697e-16
-1.69315e-16
9.5818e-11
1.73829e-16
1.38053e-16
9.5818e-11
-7.6756e-17
9.56339e-18
9.58194e-11
2.72781e-16
3.02475e-16
9.58189e-11
-4.80668e-18
-3.84656e-17
9.58196e-11
8.90742e-17
1.00405e-16
9.58195e-11
-1.65391e-17
-1.93294e-17
8.11022e-17
1.09335e-16
1.06382e-10
-1.29254e-11
1.36126e-11
1.1086e-10
-1.59169e-12
1.72632e-12
1.09386e-10
5.18139e-13
-5.61033e-13
1.09825e-10
-1.51152e-13
1.6077e-13
1.09675e-10
5.20196e-14
-5.5447e-14
1.09725e-10
-1.77557e-14
1.88272e-14
1.09708e-10
6.00522e-15
-6.42829e-15
1.09714e-10
-2.28448e-15
2.20225e-15
1.0971e-10
8.46716e-16
-1.12992e-15
1.09711e-10
-1.70402e-15
1.31555e-16
1.0971e-10
1.45332e-15
-3.99962e-16
1.0971e-10
-2.02877e-15
9.23012e-17
1.09709e-10
1.87542e-15
-1.91365e-16
1.0971e-10
-1.67622e-15
1.78452e-16
1.0971e-10
1.57154e-15
3.62604e-17
1.09712e-10
-4.41171e-16
4.05423e-16
1.09711e-10
4.75043e-16
-6.02227e-17
1.09712e-10
-1.43238e-16
1.34112e-16
1.09712e-10
2.84465e-16
-1.03062e-17
-1.5021e-16
1.38871e-16
9.3991e-11
-2.65808e-11
1.29255e-11
9.6453e-11
-2.82267e-12
1.59178e-12
9.56268e-11
9.31157e-13
-5.18301e-13
9.58857e-11
-2.80527e-13
1.51323e-13
9.5798e-11
9.57841e-14
-5.21483e-14
9.58273e-11
-3.24498e-14
1.77627e-14
9.58173e-11
1.09409e-14
-6.06407e-15
9.58207e-11
-4.17201e-15
2.08078e-15
9.58184e-11
1.88826e-15
-1.10516e-15
9.58186e-11
-3.15281e-15
2.70632e-16
9.58174e-11
3.13503e-15
-5.17355e-16
9.58179e-11
-3.94594e-15
2.7777e-16
9.58172e-11
3.85036e-15
-3.26233e-16
9.5818e-11
-3.37422e-15
3.27418e-16
9.5818e-11
3.06821e-15
-7.46281e-17
9.58194e-11
-1.17954e-15
4.14635e-16
9.58189e-11
9.4293e-16
-5.30633e-17
9.58196e-11
-4.19049e-16
1.09591e-16
9.58195e-11
5.76834e-16
-1.55956e-17
-3.99055e-16
1.06087e-16
5.03019e-11
8.18426e-12
4.83036e-11
9.24879e-13
4.8956e-11
-3.1064e-13
4.87654e-11
9.62192e-14
4.88305e-11
-3.28508e-14
4.88084e-11
1.10994e-14
4.88158e-11
-3.76995e-15
4.88129e-11
1.28921e-15
4.88142e-11
-6.61532e-16
4.88114e-11
1.7779e-16
4.88142e-11
-3.31348e-16
4.88105e-11
2.18404e-16
4.88141e-11
-2.32693e-16
4.8811e-11
2.31163e-16
4.88138e-11
-3.92714e-17
4.88129e-11
2.21737e-16
4.88136e-11
4.95483e-19
4.88134e-11
1.72642e-17
4.88139e-11
-7.70331e-18
6.62427e-17
5.5585e-11
2.74634e-11
-8.18415e-12
5.44146e-11
3.02022e-12
-9.2486e-13
5.47914e-11
-9.9802e-13
3.10524e-13
5.4687e-11
2.96816e-13
-9.60861e-14
5.47225e-11
-1.01271e-13
3.27788e-14
5.47105e-11
3.41403e-14
-1.11185e-14
5.47144e-11
-1.15034e-14
3.75119e-15
5.47127e-11
4.25416e-15
-1.41251e-15
5.47136e-11
-2.21793e-15
5.61113e-16
5.47108e-11
2.49175e-15
-1.03755e-15
5.47136e-11
-2.92821e-15
9.73609e-16
5.47099e-11
3.27926e-15
-1.29261e-15
5.47134e-11
-3.34056e-15
1.21912e-15
5.47104e-11
2.92336e-15
-1.09917e-15
5.47132e-11
-2.43332e-15
9.87241e-16
5.47124e-11
1.33847e-15
-3.27284e-16
5.47131e-11
-7.45374e-16
2.66383e-16
5.47129e-11
4.35479e-16
-8.91596e-17
5.47134e-11
-4.60851e-16
1.80746e-16
4.21394e-16
-9.23328e-17
1.06382e-10
1.36126e-11
-1.29255e-11
1.1086e-10
1.72632e-12
-1.59168e-12
1.09386e-10
-5.61045e-13
5.18146e-13
1.09825e-10
1.60779e-13
-1.51157e-13
1.09675e-10
-5.5453e-14
5.2018e-14
1.09725e-10
1.88321e-14
-1.7753e-14
1.09708e-10
-6.42587e-15
6.00219e-15
1.09714e-10
2.20123e-15
-2.27956e-15
1.0971e-10
-1.11249e-15
8.21314e-16
1.09711e-10
1.87674e-16
-1.69373e-15
1.0971e-10
-4.93918e-16
1.45797e-15
1.0971e-10
1.65707e-16
-2.01007e-15
1.09709e-10
-3.28728e-16
1.89306e-15
1.0971e-10
2.37848e-16
-1.65603e-15
1.0971e-10
-8.96591e-17
1.59352e-15
1.09712e-10
3.72688e-16
-4.02824e-16
1.09711e-10
-2.19305e-17
4.39606e-16
1.09712e-10
1.23692e-16
-1.26074e-16
1.09712e-10
-7.47642e-18
2.80085e-16
1.042e-16
-1.26479e-16
1.21131e-10
-1.36125e-11
-1.36125e-11
1.28036e-10
-1.72623e-12
-1.72624e-12
1.25792e-10
5.60823e-13
5.60832e-13
1.26435e-10
-1.60544e-13
-1.60551e-13
1.26213e-10
5.52865e-14
5.52918e-14
1.26288e-10
-1.88362e-14
-1.88395e-14
1.26262e-10
6.36694e-15
6.36597e-15
1.26271e-10
-2.4591e-15
-2.45721e-15
1.26267e-10
8.2849e-16
8.16727e-16
1.26268e-10
-1.92949e-15
-1.9515e-15
1.26266e-10
1.58889e-15
1.63723e-15
1.26266e-10
-2.26164e-15
-2.28793e-15
1.26266e-10
2.11063e-15
2.18237e-15
1.26267e-10
-1.85731e-15
-1.87774e-15
1.26267e-10
1.81768e-15
1.88585e-15
1.26268e-10
-4.46833e-16
-4.21957e-16
1.26268e-10
5.79166e-16
5.51561e-16
1.26269e-10
-1.89942e-16
-1.83968e-16
1.26269e-10
3.54798e-16
3.52675e-16
-1.9422e-16
-1.68179e-16
1.06382e-10
-2.74634e-11
-1.29255e-11
1.1086e-10
-3.02012e-12
-1.59171e-12
1.09386e-10
9.97952e-13
5.18173e-13
1.09825e-10
-2.96742e-13
-1.51178e-13
1.09675e-10
1.01153e-13
5.20276e-14
1.09725e-10
-3.4132e-14
-1.77538e-14
1.09708e-10
1.14283e-14
6.00337e-15
1.09714e-10
-4.37288e-15
-2.28064e-15
1.0971e-10
2.041e-15
8.0869e-16
1.09711e-10
-3.55687e-15
-1.64682e-15
1.0971e-10
3.69549e-15
1.41625e-15
1.0971e-10
-4.61782e-15
-1.9325e-15
1.09709e-10
4.51163e-15
1.85028e-15
1.0971e-10
-3.94982e-15
-1.5849e-15
1.0971e-10
3.49005e-15
1.56814e-15
1.09712e-10
-1.33685e-15
-3.73697e-16
1.09711e-10
9.39344e-16
4.32e-16
1.09712e-10
-3.40345e-16
-1.28672e-16
1.09712e-10
6.54069e-16
2.7439e-16
-4.79315e-16
-1.3773e-16
5.5585e-11
-8.1841e-12
5.44146e-11
-9.24831e-13
5.47914e-11
3.10495e-13
5.4687e-11
-9.60669e-14
5.47225e-11
3.27681e-14
5.47105e-11
-1.11191e-14
5.47144e-11
3.751e-15
5.47127e-11
-1.41467e-15
5.47135e-11
5.31325e-16
5.47108e-11
-9.90097e-16
5.47136e-11
9.22505e-16
5.47099e-11
-1.19738e-15
5.47134e-11
1.16507e-15
5.47104e-11
-1.00667e-15
5.47132e-11
9.57847e-16
5.47124e-11
-2.7861e-16
5.47131e-11
2.48701e-16
5.47129e-11
-8.22266e-17
5.47134e-11
1.84708e-16
-1.02493e-16
5.03019e-11
2.65809e-11
-1.83868e-11
4.83036e-11
2.82265e-12
-1.74921e-12
4.8956e-11
-9.3127e-13
5.89369e-13
4.87654e-11
2.80652e-13
-1.86049e-13
4.88305e-11
-9.58522e-14
6.34279e-14
4.88084e-11
3.24128e-14
-2.1533e-14
4.88158e-11
-1.09669e-14
7.27819e-15
4.88129e-11
4.01049e-15
-2.69924e-15
4.88142e-11
-1.99737e-15
1.11359e-15
4.88114e-11
2.02147e-15
-1.62424e-15
4.88142e-11
-2.30834e-15
1.55413e-15
4.88105e-11
2.55163e-15
-1.9613e-15
4.88141e-11
-2.59928e-15
1.89349e-15
4.8811e-11
2.27053e-15
-1.66106e-15
4.88138e-11
-1.88287e-15
1.50038e-15
4.88129e-11
1.0647e-15
-5.44483e-16
4.88136e-11
-6.04006e-16
4.22368e-16
4.88134e-11
3.59856e-16
-1.54382e-16
4.88139e-11
-3.5146e-16
2.78905e-16
3.31776e-16
-1.90291e-16
9.3991e-11
1.29255e-11
-2.65808e-11
9.6453e-11
1.59177e-12
-2.82266e-12
9.56268e-11
-5.1831e-13
9.31155e-13
9.58857e-11
1.51329e-13
-2.80525e-13
9.5798e-11
-5.215e-14
9.57802e-14
9.58273e-11
1.77639e-14
-3.24472e-14
9.58173e-11
-6.06143e-15
1.09398e-14
9.58207e-11
2.07792e-15
-4.17126e-15
9.58184e-11
-1.08092e-15
1.88096e-15
9.58186e-11
2.87171e-16
-3.14096e-15
9.58174e-11
-5.54633e-16
3.11356e-15
9.58179e-11
2.98571e-16
-3.93039e-15
9.58172e-11
-3.93667e-16
3.82662e-15
9.5818e-11
3.39928e-16
-3.35873e-15
9.5818e-11
-1.39748e-16
3.047e-15
9.58194e-11
3.76103e-16
-1.17281e-15
9.58189e-11
-1.41274e-17
9.39528e-16
9.58196e-11
9.38809e-17
-4.12866e-16
9.58195e-11
-1.17647e-17
5.75524e-16
7.63539e-17
-4.01317e-16
1.06382e-10
-1.29255e-11
-2.74634e-11
1.1086e-10
-1.59171e-12
-3.02012e-12
1.09386e-10
5.18166e-13
9.97955e-13
1.09825e-10
-1.51173e-13
-2.96744e-13
1.09675e-10
5.20271e-14
1.01155e-13
1.09725e-10
-1.7754e-14
-3.4133e-14
1.09708e-10
6.00585e-15
1.14275e-14
1.09714e-10
-2.28371e-15
-4.3728e-15
1.0971e-10
8.28657e-16
2.04016e-15
1.09711e-10
-1.63715e-15
-3.57888e-15
1.0971e-10
1.38755e-15
3.73153e-15
1.0971e-10
-1.92201e-15
-4.645e-15
1.09709e-10
1.80119e-15
4.55644e-15
1.0971e-10
-1.57938e-15
-3.97368e-15
1.0971e-10
1.52001e-15
3.53012e-15
1.09712e-10
-4.0491e-16
-1.33278e-15
1.09711e-10
4.6366e-16
9.33116e-16
1.09712e-10
-1.42196e-16
-3.39818e-16
1.09712e-10
2.77835e-16
6.53643e-16
-1.61052e-16
-4.72219e-16
9.3991e-11
-2.65809e-11
-2.65809e-11
9.6453e-11
-2.82267e-12
-2.82267e-12
9.56268e-11
9.31246e-13
9.3125e-13
9.58857e-11
-2.80615e-13
-2.80619e-13
9.5798e-11
9.58068e-14
9.5811e-14
9.58273e-11
-3.24363e-14
-3.24392e-14
9.58173e-11
1.09197e-14
1.09202e-14
9.58207e-11
-4.11972e-15
-4.11981e-15
9.58183e-11
1.92696e-15
1.92815e-15
9.58186e-11
-2.92955e-15
-2.94431e-15
9.58174e-11
3.00556e-15
3.03399e-15
9.58179e-11
-3.71552e-15
-3.73516e-15
9.58172e-11
3.62725e-15
3.66395e-15
9.5818e-11
-3.18181e-15
-3.19966e-15
9.5818e-11
2.80541e-15
2.8394e-15
9.58194e-11
-1.14526e-15
-1.14402e-15
9.58189e-11
8.17455e-16
8.12461e-16
9.58196e-11
-3.3644e-16
-3.38456e-16
9.58195e-11
5.10991e-16
5.1084e-16
-3.94431e-16
-3.86012e-16
5.03019e-11
-1.83869e-11
4.83036e-11
-1.74924e-12
4.8956e-11
5.89402e-13
4.87654e-11
-1.86087e-13
4.88305e-11
6.34616e-14
4.88084e-11
-2.15345e-14
4.88158e-11
7.29771e-15
4.88129e-11
-2.66873e-15
4.88142e-11
1.14749e-15
4.88114e-11
-1.37696e-15
4.88142e-11
1.36509e-15
4.88105e-11
-1.64122e-15
4.88141e-11
1.60535e-15
4.8811e-11
-1.40813e-15
4.88138e-11
1.23646e-15
4.88129e-11
-5.20232e-16
4.88136e-11
3.59093e-16
4.88134e-11
-1.56133e-16
4.88139e-11
2.29136e-16
-1.72816e-16
2.99063e-11
1.83869e-11
2.64078e-11
1.74928e-12
2.75866e-11
-5.89453e-13
2.72144e-11
1.86144e-13
2.73414e-11
-6.35161e-14
2.72983e-11
2.15297e-14
2.73129e-11
-7.33418e-15
2.73075e-11
2.60561e-15
2.73098e-11
-1.21664e-15
2.73071e-11
8.73232e-16
2.73098e-11
-9.81682e-16
2.73065e-11
9.97865e-16
2.73097e-11
-1.01942e-15
2.73069e-11
9.07677e-16
2.73094e-11
-6.99467e-16
2.73084e-11
4.87293e-16
2.73091e-11
-2.41765e-16
2.73088e-11
1.71091e-16
2.73092e-11
-1.30206e-16
1.32177e-16
5.03019e-11
8.18426e-12
4.83036e-11
9.24883e-13
4.8956e-11
-3.10647e-13
4.87654e-11
9.62248e-14
4.88305e-11
-3.28564e-14
4.88084e-11
1.11032e-14
4.88158e-11
-3.76983e-15
4.88129e-11
1.28904e-15
4.88142e-11
-6.59649e-16
4.88114e-11
2.08627e-16
4.88142e-11
-3.87367e-16
4.88105e-11
2.59048e-16
4.88141e-11
-3.06648e-16
4.8811e-11
2.66998e-16
4.88138e-11
-1.06894e-16
4.88129e-11
2.14597e-16
4.88136e-11
1.38101e-17
4.88134e-11
1.70249e-17
4.88139e-11
-6.92124e-18
4.98502e-17
5.5585e-11
-8.1841e-12
5.44146e-11
-9.24827e-13
5.47914e-11
3.10491e-13
5.4687e-11
-9.60633e-14
5.47225e-11
3.27641e-14
5.47105e-11
-1.11162e-14
5.47144e-11
3.75039e-15
5.47127e-11
-1.41486e-15
5.47135e-11
5.32832e-16
5.47108e-11
-9.81795e-16
5.47136e-11
9.02281e-16
5.47099e-11
-1.18458e-15
5.47134e-11
1.13536e-15
5.47104e-11
-9.95254e-16
5.47132e-11
9.29491e-16
5.47124e-11
-2.82259e-16
5.47131e-11
2.56647e-16
5.47129e-11
-8.21645e-17
5.47134e-11
1.85106e-16
-1.12579e-16
5.03019e-11
-1.83869e-11
4.83036e-11
-1.74924e-12
4.8956e-11
5.89402e-13
4.87654e-11
-1.86086e-13
4.88305e-11
6.34618e-14
4.88084e-11
-2.15345e-14
4.88158e-11
7.29755e-15
4.88129e-11
-2.66901e-15
4.88142e-11
1.15022e-15
4.88114e-11
-1.38349e-15
4.88142e-11
1.37329e-15
4.88105e-11
-1.64806e-15
4.88141e-11
1.61231e-15
4.8811e-11
-1.41452e-15
4.88138e-11
1.24202e-15
4.88129e-11
-5.22542e-16
4.88136e-11
3.62059e-16
4.88134e-11
-1.58098e-16
4.88139e-11
2.2936e-16
-1.74511e-16
2.99063e-11
2.64078e-11
2.75866e-11
2.72144e-11
2.73414e-11
2.72983e-11
2.73129e-11
2.73075e-11
2.73098e-11
2.73071e-11
2.73098e-11
2.73065e-11
2.73097e-11
2.73069e-11
2.73094e-11
2.73084e-11
2.73091e-11
2.73088e-11
2.73092e-11
)
;

boundaryField
{
    inlet
    {
        type            calculated;
        value           nonuniform List<scalar> 
25
(
-6.668e-11
-6.668e-11
-6.668e-11
-6.668e-11
-6.668e-11
-6.668e-11
-6.668e-11
-6.668e-11
-6.668e-11
-6.668e-11
-6.668e-11
-6.668e-11
-6.668e-11
-6.668e-11
-6.668e-11
-6.668e-11
-6.668e-11
-6.668e-11
-6.668e-11
-6.668e-11
-6.668e-11
-6.668e-11
-6.668e-11
-6.668e-11
-6.668e-11
)
;
    }
    outlet
    {
        type            calculated;
        value           nonuniform List<scalar> 
25
(
2.73089e-11
4.88136e-11
5.47131e-11
4.88136e-11
2.73089e-11
4.88136e-11
9.58198e-11
1.09712e-10
9.58198e-11
4.88136e-11
5.47131e-11
1.09712e-10
1.26269e-10
1.09712e-10
5.47131e-11
4.88136e-11
9.58198e-11
1.09712e-10
9.58198e-11
4.88136e-11
2.73089e-11
4.88136e-11
5.47131e-11
4.88136e-11
2.73089e-11
)
;
    }
    Walls
    {
        type            calculated;
        value           uniform 0;
    }
}


// ************************************************************************* //
