/*--------------------------------*- C++ -*----------------------------------*\
  =========                 |
  \\      /  F ield         | OpenFOAM: The Open Source CFD Toolbox
   \\    /   O peration     | Website:  https://openfoam.org
    \\  /    A nd           | Version:  13
     \\/     M anipulation  |
\*---------------------------------------------------------------------------*/
FoamFile
{
    format      ascii;
    class       volVectorField;
    location    "34";
    object      U;
}
// * * * * * * * * * * * * * * * * * * * * * * * * * * * * * * * * * * * * * //

dimensions      [0 1 -1 0 0 0 0];

internalField   nonuniform List<vector> 
500
(
(0.0487947 0.00055211 0.00055211)
(0.076315 7.50504e-05 7.50505e-05)
(0.0652293 -2.69645e-05 -2.69645e-05)
(0.0693118 9.06612e-06 9.06609e-06)
(0.0679187 -3.08961e-06 -3.08963e-06)
(0.0683935 1.04924e-06 1.04924e-06)
(0.0682322 -3.57409e-07 -3.57436e-07)
(0.0682859 1.26872e-07 1.26881e-07)
(0.0682689 -5.46808e-08 -5.49268e-08)
(0.0682715 4.14162e-08 4.11813e-08)
(0.0682713 -4.24355e-08 -4.21102e-08)
(0.0682703 4.45883e-08 4.41621e-08)
(0.0682701 -4.50773e-08 -4.44262e-08)
(0.0682713 3.98044e-08 3.94802e-08)
(0.0682696 -3.24232e-08 -3.18341e-08)
(0.068273 1.91431e-08 1.93804e-08)
(0.0682714 -1.06963e-08 -1.10175e-08)
(0.0682725 6.95162e-09 7.14873e-09)
(0.0682725 -6.48925e-09 -6.54909e-09)
(0.0682727 5.6465e-09 5.86115e-09)
(0.0863306 0.00077373 0.000788891)
(0.135951 7.68999e-05 0.000134246)
(0.116944 -2.46778e-05 -4.73099e-05)
(0.123772 7.35792e-06 1.54512e-05)
(0.121443 -2.51416e-06 -5.23023e-06)
(0.122237 8.51056e-07 1.76398e-06)
(0.121967 -2.88109e-07 -5.95382e-07)
(0.122057 1.04305e-07 2.19149e-07)
(0.122028 -4.94935e-08 -1.01642e-07)
(0.122033 4.62928e-08 1.28636e-07)
(0.122032 -5.39628e-08 -1.3744e-07)
(0.122031 5.63785e-08 1.54175e-07)
(0.12203 -5.97787e-08 -1.52831e-07)
(0.122032 5.00741e-08 1.36958e-07)
(0.12203 -4.35035e-08 -1.15095e-07)
(0.122035 2.27107e-08 5.3899e-08)
(0.122032 -1.16638e-08 -3.24189e-08)
(0.122034 7.58975e-09 2.00814e-08)
(0.122034 -7.83563e-09 -2.66951e-08)
(0.122034 7.40173e-09 1.75329e-08)
(0.0964655 9.3183e-10 0.000767469)
(0.152237 1.48586e-09 0.000144608)
(0.131207 -2.21679e-09 -5.11157e-05)
(0.138688 2.94741e-09 1.66209e-05)
(0.136135 -3.10639e-09 -5.61974e-06)
(0.137005 4.89957e-10 1.89095e-06)
(0.136709 -9.43917e-10 -6.36053e-07)
(0.136808 -2.81379e-09 2.34603e-07)
(0.136776 -2.9826e-09 -1.14788e-07)
(0.136781 -2.34973e-08 1.40073e-07)
(0.136781 1.58736e-08 -1.56314e-07)
(0.136779 -3.01533e-08 1.71726e-07)
(0.136779 2.39673e-08 -1.7278e-07)
(0.136781 -2.43809e-08 1.53382e-07)
(0.136778 2.1911e-08 -1.29274e-07)
(0.136784 -2.90657e-09 6.4566e-08)
(0.136781 6.46489e-09 -3.77669e-08)
(0.136783 -2.11707e-11 2.49027e-08)
(0.136783 4.64805e-09 -2.84864e-08)
(0.136783 -9.45366e-10 2.06387e-08)
(0.0863306 -0.000773729 0.000788891)
(0.135951 -7.68976e-05 0.000134247)
(0.116944 2.46746e-05 -4.73112e-05)
(0.123772 -7.3539e-06 1.54539e-05)
(0.121443 2.51025e-06 -5.23369e-06)
(0.122237 -8.50832e-07 1.76402e-06)
(0.121967 2.86193e-07 -5.95095e-07)
(0.122057 -1.0859e-07 2.16946e-07)
(0.122028 4.51113e-08 -1.03535e-07)
(0.122033 -8.21429e-08 1.14484e-07)
(0.122032 7.93779e-08 -1.26508e-07)
(0.122031 -1.0258e-07 1.37515e-07)
(0.12203 9.83488e-08 -1.38326e-07)
(0.122032 -8.68935e-08 1.22674e-07)
(0.12203 7.87257e-08 -1.01657e-07)
(0.122035 -2.6672e-08 5.25147e-08)
(0.122032 2.12332e-08 -3.00162e-08)
(0.122034 -7.32138e-09 1.94368e-08)
(0.122034 1.45827e-08 -2.25642e-08)
(0.122034 -9.13642e-09 1.66745e-08)
(0.0487947 -0.00055211 0.000552112)
(0.076315 -7.50495e-05 7.50523e-05)
(0.0652293 2.69637e-05 -2.69653e-05)
(0.0693118 -9.06515e-06 9.0671e-06)
(0.0679187 3.08866e-06 -3.09116e-06)
(0.0683935 -1.04943e-06 1.04963e-06)
(0.0682322 3.5633e-07 -3.58252e-07)
(0.0682859 -1.28298e-07 1.26209e-07)
(0.0682689 5.31448e-08 -5.64973e-08)
(0.0682715 -5.41741e-08 3.46508e-08)
(0.0682713 5.23536e-08 -3.64623e-08)
(0.0682703 -6.12905e-08 3.57055e-08)
(0.0682701 6.01549e-08 -3.58273e-08)
(0.0682713 -5.27719e-08 3.29296e-08)
(0.0682696 4.60034e-08 -2.41165e-08)
(0.068273 -2.01225e-08 1.97087e-08)
(0.0682714 1.36019e-08 -1.04231e-08)
(0.0682725 -6.36967e-09 7.96585e-09)
(0.0682725 8.59707e-09 -5.13703e-09)
(0.0682727 -6.34757e-09 5.26567e-09)
(0.0863306 0.000788891 0.00077373)
(0.135951 0.000134246 7.69002e-05)
(0.116944 -4.731e-05 -2.46774e-05)
(0.123772 1.54513e-05 7.35768e-06)
(0.121443 -5.23021e-06 -2.51411e-06)
(0.122237 1.76396e-06 8.51048e-07)
(0.121967 -5.95314e-07 -2.88237e-07)
(0.122057 2.19117e-07 1.04386e-07)
(0.122028 -1.01147e-07 -5.03294e-08)
(0.122033 1.29334e-07 4.46837e-08)
(0.122032 -1.38495e-07 -5.12293e-08)
(0.122031 1.55201e-07 5.42104e-08)
(0.12203 -1.5455e-07 -5.583e-08)
(0.122032 1.37759e-07 4.82851e-08)
(0.12203 -1.16666e-07 -3.98535e-08)
(0.122035 5.33227e-08 2.37697e-08)
(0.122032 -3.17321e-08 -1.29597e-08)
(0.122034 1.97068e-08 8.19097e-09)
(0.122034 -2.65828e-08 -8.03e-09)
(0.122034 1.7047e-08 8.43912e-09)
(0.167619 0.00120028 0.00120028)
(0.266005 0.000137401 0.000137401)
(0.230399 -4.24801e-05 -4.24796e-05)
(0.242678 1.18297e-05 1.18293e-05)
(0.238483 -4.09468e-06 -4.09436e-06)
(0.239914 1.39441e-06 1.39418e-06)
(0.239426 -4.74702e-07 -4.74769e-07)
(0.23959 1.69128e-07 1.69142e-07)
(0.239537 -8.3083e-08 -8.35625e-08)
(0.239548 4.92293e-08 4.65812e-08)
(0.239545 -6.22585e-08 -5.79143e-08)
(0.239544 6.08643e-08 5.74357e-08)
(0.239543 -6.73453e-08 -6.13003e-08)
(0.239546 5.50788e-08 5.22015e-08)
(0.239542 -4.51678e-08 -3.96411e-08)
(0.239549 3.52306e-08 3.62685e-08)
(0.239547 -1.69982e-08 -1.83163e-08)
(0.239549 1.16926e-08 1.19229e-08)
(0.239549 -5.15506e-09 -5.24962e-09)
(0.239549 1.03315e-08 1.16931e-08)
(0.191303 6.772e-09 0.00127282)
(0.304298 -6.93616e-10 0.000150997)
(0.264119 -5.6751e-09 -4.64248e-05)
(0.27776 5.72696e-09 1.26362e-05)
(0.273094 -1.95861e-09 -4.37441e-06)
(0.274686 -1.81838e-09 1.48523e-06)
(0.274143 -8.96985e-10 -5.04133e-07)
(0.274326 -6.34069e-09 1.80225e-07)
(0.274266 -2.45112e-09 -9.16852e-08)
(0.274279 -4.40648e-08 6.00024e-08)
(0.274276 3.05061e-08 -7.75602e-08)
(0.274274 -5.46522e-08 7.91837e-08)
(0.274273 4.61203e-08 -8.25772e-08)
(0.274276 -4.3343e-08 7.21032e-08)
(0.274273 4.34108e-08 -5.22925e-08)
(0.27428 -6.34683e-09 4.37108e-08)
(0.274277 1.52932e-08 -1.87425e-08)
(0.27428 -3.64297e-09 1.09636e-08)
(0.27428 8.07921e-09 -8.88892e-09)
(0.27428 -2.19964e-09 1.48495e-08)
(0.16762 -0.00120027 0.00120027)
(0.266005 -0.000137398 0.000137399)
(0.230399 4.24723e-05 -4.24794e-05)
(0.242678 -1.18213e-05 1.18289e-05)
(0.238483 4.08806e-06 -4.09281e-06)
(0.239914 -1.39518e-06 1.3943e-06)
(0.239426 4.73329e-07 -4.74759e-07)
(0.23959 -1.78741e-07 1.68883e-07)
(0.239537 7.58286e-08 -8.58309e-08)
(0.239548 -1.18214e-07 5.02119e-08)
(0.239545 1.0938e-07 -6.30789e-08)
(0.239544 -1.4569e-07 6.30786e-08)
(0.239543 1.38277e-07 -6.46013e-08)
(0.239546 -1.2245e-07 5.78239e-08)
(0.239542 1.11562e-07 -4.03659e-08)
(0.239549 -4.16947e-08 3.83851e-08)
(0.239547 3.68803e-08 -1.66958e-08)
(0.239549 -1.38416e-08 1.09085e-08)
(0.239549 1.90697e-08 -5.87737e-09)
(0.239549 -1.39596e-08 1.14458e-08)
(0.0863306 -0.000788888 0.000773735)
(0.135951 -0.000134244 7.68998e-05)
(0.116944 4.73081e-05 -2.46803e-05)
(0.123772 -1.54503e-05 7.36047e-06)
(0.121443 5.23007e-06 -2.51455e-06)
(0.122237 -1.76423e-06 8.49999e-07)
(0.121967 5.92457e-07 -2.88229e-07)
(0.122057 -2.21038e-07 1.02349e-07)
(0.122028 9.83261e-08 -5.08523e-08)
(0.122033 -1.49214e-07 3.577e-08)
(0.122032 1.53838e-07 -4.39834e-08)
(0.122031 -1.81907e-07 4.40793e-08)
(0.12203 1.80066e-07 -4.44343e-08)
(0.122032 -1.57143e-07 4.02866e-08)
(0.12203 1.39804e-07 -2.79693e-08)
(0.122035 -5.36395e-08 2.21247e-08)
(0.122032 3.6942e-08 -8.56309e-09)
(0.122034 -1.80507e-08 5.56301e-09)
(0.122034 2.88042e-08 -5.59101e-09)
(0.122034 -1.84258e-08 6.87788e-09)
(0.0964655 0.000767469 1.11963e-09)
(0.152237 0.000144608 1.20267e-09)
(0.131207 -5.11157e-05 -1.79049e-09)
(0.138688 1.66208e-05 2.60106e-09)
(0.136135 -5.61992e-06 -2.75401e-09)
(0.137005 1.89117e-06 2.30242e-10)
(0.136709 -6.36252e-07 -9.43316e-10)
(0.136808 2.34739e-07 -2.8192e-09)
(0.136776 -1.15058e-07 -3.08319e-09)
(0.136781 1.38876e-07 -2.53473e-08)
(0.136781 -1.53955e-07 1.91711e-08)
(0.136779 1.70709e-07 -3.26298e-08)
(0.136779 -1.70657e-07 2.83617e-08)
(0.136781 1.52321e-07 -2.65545e-08)
(0.136778 -1.27265e-07 2.59249e-08)
(0.136784 6.4819e-08 -2.53487e-09)
(0.136781 -3.79292e-08 5.7185e-09)
(0.136783 2.51707e-08 -1.76867e-11)
(0.136783 -2.85198e-08 4.60503e-09)
(0.136783 2.05607e-08 4.50128e-12)
(0.191303 0.00127282 6.37919e-09)
(0.304298 0.000150997 -3.40554e-10)
(0.264119 -4.64254e-05 -5.18529e-09)
(0.27776 1.26366e-05 5.36187e-09)
(0.273094 -4.37454e-06 -1.89818e-09)
(0.274686 1.48528e-06 -1.83026e-09)
(0.274143 -5.03864e-07 -1.06904e-09)
(0.274326 1.80086e-07 -6.15407e-09)
(0.274266 -9.06421e-08 -3.77354e-09)
(0.274279 6.38289e-08 -4.50697e-08)
(0.274276 -8.3999e-08 3.28446e-08)
(0.274274 8.38183e-08 -5.58017e-08)
(0.274273 -9.10234e-08 4.99329e-08)
(0.274276 7.6037e-08 -4.40948e-08)
(0.274273 -6.00476e-08 4.70984e-08)
(0.27428 4.19442e-08 -4.2729e-09)
(0.274277 -1.67639e-08 1.32134e-08)
(0.27428 1.02786e-08 -2.76474e-09)
(0.27428 -8.71369e-09 7.84439e-09)
(0.27428 1.31801e-08 -6.33698e-10)
(0.219456 2.93376e-09 3.19683e-09)
(0.349912 2.33722e-09 1.88925e-09)
(0.304362 -6.93763e-09 -6.24854e-09)
(0.319553 7.42377e-09 6.90928e-09)
(0.314348 -5.12059e-09 -4.58916e-09)
(0.316125 -3.48202e-10 -7.20044e-10)
(0.315519 -1.37503e-09 -1.41147e-09)
(0.315724 -7.62061e-09 -7.59546e-09)
(0.315656 -8.27652e-09 -8.6215e-09)
(0.315671 -5.06828e-08 -5.36713e-08)
(0.315667 3.15803e-08 3.68452e-08)
(0.315665 -6.03549e-08 -6.41214e-08)
(0.315664 5.09822e-08 5.81815e-08)
(0.315667 -4.68433e-08 -5.00247e-08)
(0.315663 4.96971e-08 5.63103e-08)
(0.315672 -2.249e-09 -1.05086e-09)
(0.315669 1.61418e-08 1.46004e-08)
(0.315671 -2.24956e-09 -2.18807e-09)
(0.315672 1.04347e-08 1.03583e-08)
(0.315672 -2.5678e-09 -8.19233e-10)
(0.191303 -0.00127281 2.09068e-09)
(0.304298 -0.000151003 9.57787e-10)
(0.264119 4.64154e-05 -4.18626e-09)
(0.27776 -1.26254e-05 4.67957e-09)
(0.273094 4.37099e-06 -3.10481e-09)
(0.274686 -1.49069e-06 -3.22573e-10)
(0.274143 5.04103e-07 -1.36663e-09)
(0.274326 -1.93916e-07 -6.0069e-09)
(0.274266 8.54087e-08 -7.44192e-09)
(0.274279 -1.5032e-07 -4.05523e-08)
(0.274276 1.43178e-07 2.71419e-08)
(0.274274 -1.86997e-07 -4.85207e-08)
(0.274273 1.79436e-07 4.47318e-08)
(0.274276 -1.58142e-07 -3.733e-08)
(0.274273 1.45429e-07 4.38704e-08)
(0.27428 -5.35762e-08 -4.53831e-11)
(0.274277 4.73117e-08 1.17424e-08)
(0.27428 -1.97103e-08 -1.69073e-09)
(0.27428 2.64604e-08 7.66028e-09)
(0.27428 -1.85066e-08 -9.65124e-10)
(0.0964655 -0.000767476 3.91469e-09)
(0.152237 -0.000144594 4.04791e-10)
(0.131207 5.11169e-05 -4.28532e-09)
(0.138688 -1.66225e-05 4.53231e-09)
(0.136135 5.613e-06 -1.90116e-09)
(0.137005 -1.88513e-06 -1.06772e-09)
(0.136709 6.29497e-07 -1.53987e-10)
(0.136808 -2.33858e-07 -3.81054e-09)
(0.136776 1.03524e-07 -3.21649e-09)
(0.136781 -1.56519e-07 -2.3449e-08)
(0.136781 1.66797e-07 1.70727e-08)
(0.136779 -1.974e-07 -2.77966e-08)
(0.136779 1.95393e-07 2.65636e-08)
(0.136781 -1.69819e-07 -2.21883e-08)
(0.136778 1.46504e-07 2.64898e-08)
(0.136784 -5.52424e-08 -2.17455e-09)
(0.136781 3.25262e-08 7.80361e-09)
(0.136783 -1.16691e-08 -2.73057e-09)
(0.136783 2.99402e-08 5.21025e-09)
(0.136783 -2.1043e-08 -1.03904e-09)
(0.0863306 0.000788892 -0.000773729)
(0.135951 0.000134246 -7.6898e-05)
(0.116944 -4.73111e-05 2.46746e-05)
(0.123772 1.54538e-05 -7.35398e-06)
(0.121443 -5.23314e-06 2.51046e-06)
(0.122237 1.7637e-06 -8.51017e-07)
(0.121967 -5.94927e-07 2.86299e-07)
(0.122057 2.16816e-07 -1.0864e-07)
(0.122028 -1.01911e-07 4.55301e-08)
(0.122033 1.12776e-07 -8.18824e-08)
(0.122032 -1.23467e-07 7.92052e-08)
(0.122031 1.3553e-07 -1.02316e-07)
(0.12203 -1.35791e-07 9.81087e-08)
(0.122032 1.20481e-07 -8.67177e-08)
(0.12203 -9.9407e-08 7.85083e-08)
(0.122035 5.07432e-08 -2.70571e-08)
(0.122032 -2.86377e-08 2.1504e-08)
(0.122034 1.81187e-08 -7.66914e-09)
(0.122034 -2.23136e-08 1.46829e-08)
(0.122034 1.63476e-08 -9.1396e-09)
(0.16762 0.00120027 -0.00120027)
(0.266005 0.0001374 -0.000137399)
(0.230399 -4.24798e-05 4.24726e-05)
(0.242678 1.18292e-05 -1.18215e-05)
(0.238483 -4.09324e-06 4.08847e-06)
(0.239914 1.39455e-06 -1.39541e-06)
(0.239426 -4.74692e-07 4.73337e-07)
(0.23959 1.68903e-07 -1.7874e-07)
(0.239537 -8.5839e-08 7.61987e-08)
(0.239548 5.37387e-08 -1.20174e-07)
(0.239545 -6.87856e-08 1.13008e-07)
(0.239544 6.75229e-08 -1.48086e-07)
(0.239543 -7.18658e-08 1.4245e-07)
(0.239546 6.1742e-08 -1.24711e-07)
(0.239542 -4.69811e-08 1.15391e-07)
(0.239549 3.78984e-08 -4.18341e-08)
(0.239547 -1.58405e-08 3.66554e-08)
(0.239549 1.10684e-08 -1.42179e-08)
(0.239549 -5.87853e-09 1.90797e-08)
(0.239549 1.03104e-08 -1.3306e-08)
(0.191303 2.48884e-09 -0.00127281)
(0.304298 5.97725e-10 -0.000151003)
(0.264119 -4.68318e-09 4.64158e-05)
(0.27776 5.04889e-09 -1.26257e-05)
(0.273094 -3.16356e-09 4.37148e-06)
(0.274686 -3.10207e-10 -1.49103e-06)
(0.274143 -1.19046e-09 5.04161e-07)
(0.274326 -6.19421e-09 -1.93941e-07)
(0.274266 -6.09624e-09 8.56485e-08)
(0.274279 -3.94987e-08 -1.51982e-07)
(0.274276 2.47361e-08 1.46263e-07)
(0.274274 -4.73104e-08 -1.89147e-07)
(0.274273 4.08157e-08 1.83367e-07)
(0.274276 -3.65336e-08 -1.60084e-07)
(0.274273 4.00896e-08 1.49065e-07)
(0.27428 -2.15494e-09 -5.34965e-08)
(0.274277 1.38534e-08 4.68845e-08)
(0.27428 -2.58573e-09 -2.00449e-08)
(0.27428 7.89782e-09 2.64618e-08)
(0.27428 -2.55256e-09 -1.76387e-08)
(0.16762 -0.00120027 -0.00120027)
(0.266005 -0.000137407 -0.000137408)
(0.230399 4.24729e-05 4.24733e-05)
(0.242678 -1.18211e-05 -1.18214e-05)
(0.238483 4.09213e-06 4.09241e-06)
(0.239914 -1.39977e-06 -1.39995e-06)
(0.239426 4.75564e-07 4.75567e-07)
(0.23959 -1.80458e-07 -1.80425e-07)
(0.239537 8.04148e-08 8.02979e-08)
(0.239548 -1.21333e-07 -1.22324e-07)
(0.239545 1.13747e-07 1.15837e-07)
(0.239544 -1.46777e-07 -1.48054e-07)
(0.239543 1.41096e-07 1.43917e-07)
(0.239546 -1.24294e-07 -1.25413e-07)
(0.239542 1.15669e-07 1.18314e-07)
(0.239549 -4.62677e-08 -4.58253e-08)
(0.239547 4.14564e-08 4.07744e-08)
(0.239549 -1.95602e-08 -1.95641e-08)
(0.239549 2.01723e-08 2.01309e-08)
(0.239549 -1.49178e-08 -1.41059e-08)
(0.0863306 -0.000788895 -0.000773729)
(0.135951 -0.000134235 -7.68972e-05)
(0.116944 4.7313e-05 2.46754e-05)
(0.123772 -1.54559e-05 -7.3552e-06)
(0.121443 5.22739e-06 2.51082e-06)
(0.122237 -1.75858e-06 -8.50497e-07)
(0.121967 5.89074e-07 2.86556e-07)
(0.122057 -2.16246e-07 -1.07263e-07)
(0.122028 9.46843e-08 4.51452e-08)
(0.122033 -1.30141e-07 -7.13503e-08)
(0.122032 1.38229e-07 7.07581e-08)
(0.122031 -1.62694e-07 -8.82193e-08)
(0.12203 1.60524e-07 8.61889e-08)
(0.122032 -1.39695e-07 -7.49292e-08)
(0.12203 1.17917e-07 6.77592e-08)
(0.122035 -4.52904e-08 -2.39776e-08)
(0.122032 2.48597e-08 1.76751e-08)
(0.122034 -7.46067e-09 -6.31684e-09)
(0.122034 2.36835e-08 1.28203e-08)
(0.122034 -1.73763e-08 -8.64695e-09)
(0.0487947 0.000552112 -0.00055211)
(0.076315 7.50521e-05 -7.50495e-05)
(0.0652293 -2.69654e-05 2.69636e-05)
(0.0693118 9.06717e-06 -9.06508e-06)
(0.0679187 -3.09114e-06 3.08858e-06)
(0.0683935 1.04963e-06 -1.04937e-06)
(0.0682322 -3.58209e-07 3.56339e-07)
(0.0682859 1.26192e-07 -1.28273e-07)
(0.0682689 -5.619e-08 5.31148e-08)
(0.0682715 3.50216e-08 -5.33788e-08)
(0.0682713 -3.70268e-08 5.12014e-08)
(0.0682703 3.62422e-08 -6.02135e-08)
(0.0682702 -3.67897e-08 5.86916e-08)
(0.0682713 3.33247e-08 -5.18255e-08)
(0.0682696 -2.49882e-08 4.47188e-08)
(0.068273 1.9325e-08 -2.00982e-08)
(0.0682714 -1.00024e-08 1.36913e-08)
(0.0682725 7.72555e-09 -6.34806e-09)
(0.0682725 -5.07471e-09 8.61897e-09)
(0.0682727 4.97989e-09 -6.51721e-09)
(0.0863306 0.000773735 -0.000788889)
(0.135951 7.68998e-05 -0.000134244)
(0.116944 -2.46806e-05 4.73077e-05)
(0.123772 7.36069e-06 -1.545e-05)
(0.121443 -2.51469e-06 5.22946e-06)
(0.122237 8.50101e-07 -1.76384e-06)
(0.121967 -2.88174e-07 5.92397e-07)
(0.122057 1.02327e-07 -2.20916e-07)
(0.122028 -5.05279e-08 9.7249e-08)
(0.122033 3.7199e-08 -1.45556e-07)
(0.122032 -4.64081e-08 1.47925e-07)
(0.122031 4.59668e-08 -1.77302e-07)
(0.12203 -4.77574e-08 1.73497e-07)
(0.122032 4.18862e-08 -1.52788e-07)
(0.12203 -3.09868e-08 1.33953e-07)
(0.122035 2.15652e-08 -5.26033e-08)
(0.122032 -7.7932e-09 3.64812e-08)
(0.122034 5.33975e-09 -1.71543e-08)
(0.122034 -5.51086e-09 2.86961e-08)
(0.122034 6.14082e-09 -1.88602e-08)
(0.0964655 3.72349e-09 -0.000767476)
(0.152237 7.06296e-10 -0.000144594)
(0.131207 -4.62558e-09 5.11167e-05)
(0.138688 4.81118e-09 -1.66224e-05)
(0.136135 -2.2243e-09 5.61259e-06)
(0.137005 -8.46713e-10 -1.88485e-06)
(0.136709 -1.76774e-10 6.29396e-07)
(0.136808 -3.80969e-09 -2.33759e-07)
(0.136776 -3.23287e-09 1.02765e-07)
(0.136781 -2.20982e-08 -1.55197e-07)
(0.136781 1.45198e-08 1.6469e-07)
(0.136779 -2.59919e-08 -1.9568e-07)
(0.136779 2.32197e-08 1.93153e-07)
(0.136781 -2.05671e-08 -1.68141e-07)
(0.136778 2.34101e-08 1.44497e-07)
(0.136784 -2.37724e-09 -5.4426e-08)
(0.136781 8.33378e-09 3.19805e-08)
(0.136783 -2.64152e-09 -1.10041e-08)
(0.136783 5.22995e-09 2.98589e-08)
(0.136783 -1.79904e-09 -2.11146e-08)
(0.0863306 -0.000773729 -0.000788895)
(0.135951 -7.68971e-05 -0.000134235)
(0.116944 2.46753e-05 4.7313e-05)
(0.123772 -7.3551e-06 -1.54559e-05)
(0.121443 2.51071e-06 5.22735e-06)
(0.122237 -8.50411e-07 -1.75857e-06)
(0.121967 2.86524e-07 5.89077e-07)
(0.122057 -1.07274e-07 -2.16228e-07)
(0.122028 4.52427e-08 9.45316e-08)
(0.122033 -7.14618e-08 -1.29687e-07)
(0.122032 7.06725e-08 1.37595e-07)
(0.122031 -8.82467e-08 -1.6217e-07)
(0.12203 8.58636e-08 1.59891e-07)
(0.122032 -7.49557e-08 -1.39206e-07)
(0.12203 6.73959e-08 1.17382e-07)
(0.122035 -2.4099e-08 -4.51538e-08)
(0.122032 1.79281e-08 2.473e-08)
(0.122034 -6.34976e-09 -7.34805e-09)
(0.122034 1.2833e-08 2.3674e-08)
(0.122034 -8.93493e-09 -1.73413e-08)
(0.0487947 -0.00055211 -0.00055211)
(0.076315 -7.50497e-05 -7.50496e-05)
(0.0652293 2.69644e-05 2.69644e-05)
(0.0693118 -9.06613e-06 -9.06611e-06)
(0.0679187 3.08916e-06 3.08912e-06)
(0.0683935 -1.04905e-06 -1.04903e-06)
(0.0682322 3.56649e-07 3.56647e-07)
(0.0682859 -1.27365e-07 -1.27352e-07)
(0.0682689 5.3992e-08 5.38757e-08)
(0.0682715 -4.74853e-08 -4.71248e-08)
(0.0682713 4.70257e-08 4.64858e-08)
(0.0682703 -5.28365e-08 -5.24154e-08)
(0.0682702 5.20799e-08 5.15091e-08)
(0.0682713 -4.60323e-08 -4.56421e-08)
(0.0682696 3.83773e-08 3.78798e-08)
(0.068273 -1.93882e-08 -1.93028e-08)
(0.0682714 1.18228e-08 1.17528e-08)
(0.0682725 -6.05677e-09 -5.96071e-09)
(0.0682725 7.24075e-09 7.23321e-09)
(0.0682727 -6.00521e-09 -6.02011e-09)
)
;

boundaryField
{
    inlet
    {
        type            fixedValue;
        value           uniform (0.1667 0 0);
    }
    outlet
    {
        type            zeroGradient;
    }
    Walls
    {
        type            noSlip;
    }
}


// ************************************************************************* //
