/*--------------------------------*- C++ -*----------------------------------*\
  =========                 |
  \\      /  F ield         | OpenFOAM: The Open Source CFD Toolbox
   \\    /   O peration     | Website:  https://openfoam.org
    \\  /    A nd           | Version:  13
     \\/     M anipulation  |
\*---------------------------------------------------------------------------*/
FoamFile
{
    format      ascii;
    class       surfaceScalarField;
    location    "35";
    object      phi;
}
// * * * * * * * * * * * * * * * * * * * * * * * * * * * * * * * * * * * * * //

dimensions      [0 3 -1 0 0 0 0];

internalField   nonuniform List<scalar> 
1275
(
2.9626e-13
1.8527e-13
1.8527e-13
2.64099e-13
1.60807e-14
1.60807e-14
2.76616e-13
-6.25894e-15
-6.25892e-15
2.71714e-13
2.45124e-15
2.45123e-15
2.73631e-13
-9.58474e-16
-9.58464e-16
2.72882e-13
3.74647e-16
3.74632e-16
2.73174e-13
-1.46406e-16
-1.46409e-16
2.73056e-13
5.866e-17
5.86563e-17
2.73107e-13
-2.54071e-17
-2.54719e-17
2.73069e-13
1.65768e-17
1.63911e-17
2.73099e-13
-1.34021e-17
-1.31437e-17
2.73066e-13
1.33456e-17
1.30901e-17
2.73097e-13
-1.29468e-17
-1.25446e-17
2.7307e-13
1.10976e-17
1.08888e-17
2.73094e-13
-9.50327e-18
-9.13377e-18
2.73083e-13
4.77522e-18
4.86934e-18
2.73091e-13
-3.13288e-18
-3.23759e-18
2.73087e-13
1.87971e-18
1.91969e-18
2.73092e-13
-2.04365e-18
-2.05958e-18
1.71274e-18
1.80128e-18
5.0105e-13
8.25975e-14
2.68423e-13
4.83136e-13
8.5367e-15
2.54595e-14
4.901e-13
-3.32012e-15
-9.90431e-15
4.87375e-13
1.30044e-15
3.87659e-15
4.88439e-13
-5.08407e-16
-1.51432e-15
4.88024e-13
1.98477e-16
5.91128e-16
4.88185e-13
-7.76825e-17
-2.30602e-16
4.88118e-13
3.05984e-17
9.30667e-17
4.88147e-13
-1.38615e-17
-4.17106e-17
4.88113e-13
4.80528e-18
3.03002e-17
4.88142e-13
-4.58584e-18
-2.62676e-17
4.88106e-13
1.96956e-18
2.75661e-17
4.8814e-13
-2.88224e-18
-2.66731e-17
4.8811e-13
1.75904e-18
2.34517e-17
4.88138e-13
-1.30791e-18
-1.95566e-17
4.88129e-13
2.05293e-18
1.05602e-17
4.88137e-13
-4.23504e-19
-7.05829e-18
4.88134e-13
9.64386e-19
4.15995e-18
4.88139e-13
-3.19577e-19
-4.50735e-18
7.28986e-19
3.84706e-18
5.54556e-13
-8.25979e-14
2.7744e-13
5.44255e-13
-8.53626e-15
2.73752e-14
5.48262e-13
3.31952e-15
-1.06481e-14
5.46698e-13
-1.29954e-15
4.16572e-15
5.47306e-13
5.07611e-16
-1.62563e-15
5.47069e-13
-1.98335e-16
6.33625e-16
5.4716e-13
7.72285e-17
-2.46739e-16
5.47121e-13
-3.14283e-17
9.95649e-17
5.47138e-13
1.29068e-17
-4.5613e-17
5.47108e-13
-1.28127e-17
3.30937e-17
5.47136e-13
9.73902e-18
-3.02376e-17
5.471e-13
-1.23627e-17
3.12488e-17
5.47134e-13
1.0988e-17
-3.07378e-17
5.47104e-13
-1.01216e-17
2.68179e-17
5.47132e-13
8.78119e-18
-2.2056e-17
5.47124e-13
-2.84466e-18
1.24457e-17
5.47132e-13
2.69192e-18
-7.7241e-18
5.47129e-13
-8.69519e-19
4.72816e-18
5.47135e-13
1.85964e-18
-5.10341e-18
-1.06218e-18
4.60865e-18
5.0105e-13
-1.8527e-13
2.68422e-13
4.83136e-13
-1.60803e-14
2.54595e-14
4.901e-13
6.25853e-15
-9.90428e-15
4.87375e-13
-2.45069e-15
3.87674e-15
4.88439e-13
9.58069e-16
-1.51461e-15
4.88024e-13
-3.74665e-16
5.91208e-16
4.88185e-13
1.46003e-16
-2.30682e-16
4.88118e-13
-5.91902e-17
9.28139e-17
4.88147e-13
2.48264e-17
-4.21281e-17
4.88113e-13
-2.15749e-17
2.81888e-17
4.88142e-13
1.70519e-17
-2.47914e-17
4.88106e-13
-1.98762e-17
2.49063e-17
4.8814e-13
1.86248e-17
-2.43435e-17
4.8811e-13
-1.6254e-17
2.13121e-17
4.88138e-13
1.46985e-17
-1.7409e-17
4.88129e-13
-5.11393e-18
1.0582e-17
4.88137e-13
4.33307e-18
-6.67407e-18
4.88134e-13
-1.71566e-18
4.28453e-18
4.88139e-13
2.92739e-18
-4.06799e-18
-1.98996e-18
3.80581e-18
2.9626e-13
1.8527e-13
2.64099e-13
1.6081e-14
2.76616e-13
-6.25919e-15
2.71714e-13
2.45156e-15
2.73631e-13
-9.58744e-16
2.72882e-13
3.74636e-16
2.73174e-13
-1.46667e-16
2.73056e-13
5.83788e-17
2.73107e-13
-2.59083e-17
2.73069e-13
1.39219e-17
2.73099e-13
-1.12232e-17
2.73066e-13
9.93709e-18
2.73097e-13
-9.46285e-18
2.7307e-13
8.46429e-18
2.73094e-13
-6.2628e-18
2.73083e-13
4.92185e-18
2.73091e-13
-2.75014e-18
2.73087e-13
2.04837e-18
2.73092e-13
-1.56717e-18
1.59268e-18
5.0105e-13
2.68423e-13
8.25975e-14
4.83136e-13
2.54594e-14
8.53674e-15
4.901e-13
-9.90438e-15
-3.32003e-15
4.87375e-13
3.87664e-15
1.30039e-15
4.88439e-13
-1.51434e-15
-5.08378e-16
4.88024e-13
5.91137e-16
1.98462e-16
4.88185e-13
-2.3059e-16
-7.7693e-17
4.88118e-13
9.30611e-17
3.06079e-17
4.88147e-13
-4.16062e-17
-1.40086e-17
4.88113e-13
3.06413e-17
4.47439e-18
4.88142e-13
-2.68315e-17
-4.02375e-18
4.88106e-13
2.80292e-17
1.53489e-18
4.8814e-13
-2.74819e-17
-2.04952e-18
4.8811e-13
2.38422e-17
1.40194e-18
4.88138e-13
-2.02951e-17
-5.31155e-19
4.88129e-13
1.03863e-17
2.29232e-18
4.88137e-13
-6.84863e-18
-6.89444e-19
4.88134e-13
4.09401e-18
1.05046e-18
4.88139e-13
-4.4656e-18
-3.63609e-19
3.63609e-18
9.80261e-19
9.42021e-13
1.30814e-13
1.30814e-13
9.64486e-13
1.42277e-14
1.42276e-14
9.5574e-13
-5.53251e-15
-5.53243e-15
9.59161e-13
2.16774e-15
2.16768e-15
9.57827e-13
-8.48368e-16
-8.48322e-16
9.58345e-13
3.3186e-16
3.3181e-16
9.58142e-13
-1.30207e-16
-1.302e-16
9.58221e-13
5.12098e-17
5.11975e-17
9.58179e-13
-2.26095e-17
-2.27453e-17
9.58188e-13
7.09096e-18
6.68997e-18
9.58176e-13
-5.78345e-18
-5.13373e-18
9.58179e-13
1.47242e-18
9.02903e-19
9.58174e-13
-2.44507e-18
-1.4053e-18
9.58179e-13
1.31812e-18
8.53594e-19
9.58181e-13
-4.19292e-19
5.51806e-19
9.58194e-13
2.73798e-18
2.98625e-18
9.5819e-13
-3.82632e-19
-6.70285e-19
9.58197e-13
1.25854e-18
1.32967e-18
9.58195e-13
-2.75195e-19
-3.31051e-19
7.58261e-19
1.06833e-18
1.06802e-12
-1.30812e-13
1.37846e-13
1.10841e-12
-1.42274e-14
1.54398e-14
1.0927e-12
5.53103e-15
-6.00286e-15
1.09885e-12
-2.16611e-15
2.35125e-15
1.09645e-12
8.47654e-16
-9.19731e-16
1.09739e-12
-3.31955e-16
3.59388e-16
1.09702e-12
1.29398e-16
-1.40909e-16
1.09716e-12
-5.28519e-17
5.53016e-17
1.0971e-12
2.13218e-17
-2.52265e-17
1.09711e-12
-2.20426e-17
6.85579e-18
1.0971e-12
1.61549e-17
-5.71041e-18
1.0971e-12
-2.09601e-17
8.99474e-19
1.0971e-12
1.87821e-17
-1.37418e-18
1.0971e-12
-1.6927e-17
9.99554e-19
1.0971e-12
1.57187e-17
1.06958e-18
1.09712e-12
-4.41202e-18
3.8357e-18
1.09711e-12
4.94579e-18
-8.19444e-19
1.09712e-12
-1.60754e-18
1.64782e-18
1.09712e-12
3.1028e-18
-2.41794e-19
-1.82824e-18
1.35389e-18
9.42021e-13
-2.68421e-13
1.30812e-13
9.64486e-13
-2.54597e-14
1.42281e-14
9.5574e-13
9.90334e-15
-5.53243e-15
9.59161e-13
-3.87556e-15
2.16775e-15
9.57827e-13
1.51407e-15
-8.48685e-16
9.58345e-13
-5.9143e-16
3.32188e-16
9.58142e-13
2.30255e-16
-1.30266e-16
9.58221e-13
-9.41923e-17
5.12341e-17
9.58179e-13
4.0932e-17
-2.39278e-17
9.58188e-13
-3.95098e-17
7.95232e-18
9.58176e-13
3.30719e-17
-7.16617e-18
9.58179e-13
-3.92365e-17
3.24191e-18
9.58174e-13
3.72903e-17
-3.315e-18
9.58179e-13
-3.27562e-17
3.10088e-18
9.58181e-13
2.97276e-17
-4.66235e-19
9.58194e-13
-1.13784e-17
4.25326e-18
9.5819e-13
9.77859e-18
-8.7901e-19
9.58197e-13
-4.62006e-18
1.47849e-18
9.58195e-13
6.19427e-18
-2.21136e-20
-4.38809e-18
7.7488e-19
5.0105e-13
8.25991e-14
4.83136e-13
8.53639e-15
4.901e-13
-3.32059e-15
4.87375e-13
1.30085e-15
4.88439e-13
-5.08272e-16
4.88024e-13
1.98303e-16
4.88185e-13
-7.75767e-17
4.88118e-13
3.04071e-17
4.88147e-13
-1.39565e-17
4.88113e-13
4.75891e-18
4.88142e-13
-4.35084e-18
4.88106e-13
2.33545e-18
4.8814e-13
-2.27851e-18
4.8811e-13
2.13785e-18
4.88138e-13
-2.93984e-19
4.88129e-13
2.25971e-18
4.88137e-13
-1.61834e-19
4.88134e-13
4.08798e-19
4.88139e-13
-1.97187e-19
7.09347e-19
5.54556e-13
2.7744e-13
-8.25978e-14
5.44255e-13
2.73752e-14
-8.53631e-15
5.48262e-13
-1.06481e-14
3.31957e-15
5.46698e-13
4.16575e-15
-1.2996e-15
5.47306e-13
-1.62567e-15
5.07646e-16
5.47069e-13
6.33652e-16
-1.98361e-16
5.4716e-13
-2.46757e-16
7.72318e-17
5.47121e-13
9.95763e-17
-3.14295e-17
5.47138e-13
-4.56642e-17
1.2916e-17
5.47108e-13
3.32722e-17
-1.29391e-17
5.47136e-13
-3.05293e-17
1.00377e-17
5.471e-13
3.15492e-17
-1.25645e-17
5.47134e-13
-3.11868e-17
1.14152e-17
5.47104e-13
2.70814e-17
-1.02956e-17
5.47132e-13
-2.24562e-17
9.1581e-18
5.47124e-13
1.24495e-17
-2.79984e-18
5.47132e-13
-7.66663e-18
2.59734e-18
5.47129e-13
4.77067e-18
-8.63687e-19
5.47135e-13
-5.08677e-18
1.85432e-18
4.47821e-18
-9.47162e-19
1.06802e-12
1.37846e-13
-1.30812e-13
1.10841e-12
1.54398e-14
-1.42273e-14
1.0927e-12
-6.00297e-15
5.53108e-15
1.09885e-12
2.35133e-15
-2.16614e-15
1.09645e-12
-9.19782e-16
8.47667e-16
1.09739e-12
3.59432e-16
-3.31969e-16
1.09702e-12
-1.40904e-16
1.29399e-16
1.09716e-12
5.53053e-17
-5.28329e-17
1.0971e-12
-2.50492e-17
2.11341e-17
1.09711e-12
7.40251e-18
-2.20245e-17
1.0971e-12
-6.6286e-18
1.62805e-17
1.0971e-12
1.6595e-18
-2.0876e-17
1.0971e-12
-2.76704e-18
1.90496e-17
1.0971e-12
1.629e-18
-1.68258e-17
1.0971e-12
-2.1775e-19
1.60307e-17
1.09712e-12
3.51694e-18
-4.11027e-18
1.09711e-12
-4.4131e-19
4.6756e-18
1.09712e-12
1.54473e-18
-1.5152e-18
1.09712e-12
-1.7261e-19
3.05797e-18
9.59611e-19
-1.58684e-18
1.21819e-12
-1.37845e-13
-1.37845e-13
1.27994e-12
-1.54392e-14
-1.54392e-14
1.25593e-12
6.00106e-15
6.00115e-15
1.26534e-12
-2.34902e-15
-2.34909e-15
1.26166e-12
9.18382e-16
9.18423e-16
1.2631e-12
-3.59279e-16
-3.59306e-16
1.26253e-12
1.39972e-16
1.39975e-16
1.26275e-12
-5.74138e-17
-5.7404e-17
1.26265e-12
2.21783e-17
2.20526e-17
1.26268e-12
-2.45228e-17
-2.47233e-17
1.26266e-12
1.7198e-17
1.76545e-17
1.26266e-12
-2.29039e-17
-2.3167e-17
1.26266e-12
2.06543e-17
2.13653e-17
1.26267e-12
-1.82805e-17
-1.8489e-17
1.26267e-12
1.78927e-17
1.85745e-17
1.26268e-12
-4.24665e-18
-3.99597e-18
1.26268e-12
5.92442e-18
5.64456e-18
1.26269e-12
-2.01601e-18
-1.95163e-18
1.26269e-12
4.10808e-18
4.06143e-18
-2.51863e-18
-2.22726e-18
1.06802e-12
-2.7744e-13
-1.30813e-13
1.10841e-12
-2.73743e-14
-1.42275e-14
1.0927e-12
1.06476e-14
5.53133e-15
1.09885e-12
-4.165e-15
-2.16634e-15
1.09645e-12
1.6248e-15
8.47723e-16
1.09739e-12
-6.3361e-16
-3.31952e-16
1.09702e-12
2.45946e-16
1.29397e-16
1.09716e-12
-1.00629e-16
-5.2828e-17
1.0971e-12
4.40966e-17
2.09325e-17
1.09711e-12
-4.3944e-17
-2.14634e-17
1.0971e-12
3.83193e-17
1.57568e-17
1.0971e-12
-4.54383e-17
-1.99648e-17
1.0971e-12
4.33477e-17
1.85136e-17
1.0971e-12
-3.80211e-17
-1.59756e-17
1.0971e-12
3.35498e-17
1.57178e-17
1.09712e-12
-1.27327e-17
-3.75501e-18
1.09711e-12
9.81999e-18
4.53471e-18
1.09712e-12
-3.97748e-18
-1.4878e-18
1.09712e-12
7.03062e-18
3.07559e-18
-5.19021e-18
-1.75211e-18
5.54556e-13
-8.25972e-14
5.44255e-13
-8.53611e-15
5.48262e-13
3.3193e-15
5.46698e-13
-1.2994e-15
5.47306e-13
5.0755e-16
5.47069e-13
-1.98379e-16
5.4716e-13
7.7236e-17
5.47121e-13
-3.14682e-17
5.47138e-13
1.26689e-17
5.47108e-13
-1.2579e-17
5.47136e-13
9.69215e-18
5.471e-13
-1.18046e-17
5.47134e-13
1.10754e-17
5.47104e-13
-9.56733e-18
5.47132e-13
9.05636e-18
5.47124e-13
-2.46582e-18
5.47132e-13
2.51879e-18
5.47129e-13
-8.81e-19
5.47135e-13
1.92457e-18
-1.08703e-18
5.0105e-13
2.68422e-13
-1.8527e-13
4.83136e-13
2.54595e-14
-1.60803e-14
4.901e-13
-9.90429e-15
6.25851e-15
4.87375e-13
3.87674e-15
-2.45068e-15
4.88439e-13
-1.5146e-15
9.58065e-16
4.88024e-13
5.91219e-16
-3.74658e-16
4.88185e-13
-2.30673e-16
1.46011e-16
4.88118e-13
9.28265e-17
-5.91864e-17
4.88147e-13
-4.20135e-17
2.48635e-17
4.88113e-13
2.85048e-17
-2.13993e-17
4.88142e-13
-2.51781e-17
1.68189e-17
4.88106e-13
2.53352e-17
-1.96326e-17
4.8814e-13
-2.49532e-17
1.82916e-17
4.8811e-13
2.16648e-17
-1.60489e-17
4.88138e-13
-1.79729e-17
1.44046e-17
4.88129e-13
1.04485e-17
-5.15688e-18
4.88137e-13
-6.54607e-18
4.38846e-18
4.88134e-13
4.21833e-18
-1.74478e-18
4.88139e-13
-4.03047e-18
2.93711e-18
3.68954e-18
-2.03508e-18
9.42021e-13
1.30812e-13
-2.68421e-13
9.64486e-13
1.42281e-14
-2.54597e-14
9.5574e-13
-5.53251e-15
9.90332e-15
9.59161e-13
2.1678e-15
-3.87553e-15
9.57827e-13
-8.48724e-16
1.51406e-15
9.58345e-13
3.32232e-16
-5.91435e-16
9.58142e-13
-1.30274e-16
2.30257e-16
9.58221e-13
5.1236e-17
-9.41987e-17
9.58179e-13
-2.37512e-17
4.09123e-17
9.58188e-13
8.21009e-18
-3.94715e-17
9.58176e-13
-7.64419e-18
3.29543e-17
9.58179e-13
3.58498e-18
-3.91775e-17
9.58174e-13
-4.12507e-18
3.7154e-17
9.58179e-13
3.36427e-18
-3.26977e-17
9.58181e-13
-1.2537e-18
2.96119e-17
9.58194e-13
3.95037e-18
-1.13792e-17
9.5819e-13
-5.66277e-19
9.80416e-18
9.58197e-13
1.39039e-18
-4.6117e-18
9.58195e-13
3.51936e-20
6.19515e-18
4.58097e-19
-4.42903e-18
1.06802e-12
-1.30813e-13
-2.7744e-13
1.10841e-12
-1.42275e-14
-2.73743e-14
1.0927e-12
5.53127e-15
1.06476e-14
1.09885e-12
-2.1663e-15
-4.16502e-15
1.09645e-12
8.47702e-16
1.6248e-15
1.09739e-12
-3.31929e-16
-6.33606e-16
1.09702e-12
1.29397e-16
2.45935e-16
1.09716e-12
-5.2836e-17
-1.00623e-16
1.0971e-12
2.1088e-17
4.40558e-17
1.09711e-12
-2.13092e-17
-4.41068e-17
1.0971e-12
1.54181e-17
3.86046e-17
1.0971e-12
-1.9782e-17
-4.56532e-17
1.0971e-12
1.79532e-17
4.37268e-17
1.0971e-12
-1.58424e-17
-3.82064e-17
1.0971e-12
1.51648e-17
3.38877e-17
1.09712e-12
-4.01434e-18
-1.26634e-17
1.09711e-12
4.79392e-18
9.72957e-18
1.09712e-12
-1.56941e-18
-3.94636e-18
1.09712e-12
3.11984e-18
7.01621e-18
-1.99733e-18
-5.10246e-18
9.42021e-13
-2.68422e-13
-2.68422e-13
9.64486e-13
-2.54596e-14
-2.54596e-14
9.5574e-13
9.90416e-15
9.9042e-15
9.59161e-13
-3.8764e-15
-3.87643e-15
9.57827e-13
1.51434e-15
1.51436e-15
9.58345e-13
-5.91398e-16
-5.91405e-16
9.58142e-13
2.30137e-16
2.30135e-16
9.58221e-13
-9.37655e-17
-9.37594e-17
9.58179e-13
4.13745e-17
4.13499e-17
9.58188e-13
-3.74393e-17
-3.75268e-17
9.58176e-13
3.20766e-17
3.22798e-17
9.58179e-13
-3.71709e-17
-3.72934e-17
9.58174e-13
3.53899e-17
3.56765e-17
9.58179e-13
-3.11132e-17
-3.12176e-17
9.58181e-13
2.73868e-17
2.76501e-17
9.58194e-13
-1.12674e-17
-1.12004e-17
9.5819e-13
8.64577e-18
8.55552e-18
9.58197e-13
-3.93686e-18
-3.92085e-18
9.58195e-13
5.52969e-18
5.51561e-18
-4.33098e-18
-4.23128e-18
5.0105e-13
-1.8527e-13
4.83136e-13
-1.60806e-14
4.901e-13
6.2588e-15
4.87375e-13
-2.45104e-15
4.88439e-13
9.58342e-16
4.88024e-13
-3.74685e-16
4.88185e-13
1.46245e-16
4.88118e-13
-5.89288e-17
4.88147e-13
2.52064e-17
4.88113e-13
-1.90409e-17
4.88142e-13
1.51519e-17
4.88106e-13
-1.65794e-17
4.8814e-13
1.56279e-17
4.8811e-13
-1.36661e-17
4.88138e-13
1.19433e-17
4.88129e-13
-5.04359e-18
4.88137e-13
3.79506e-18
4.88134e-13
-1.82011e-18
4.88139e-13
2.47222e-18
-1.87823e-18
2.9626e-13
1.85271e-13
2.64099e-13
1.6081e-14
2.76616e-13
-6.25922e-15
2.71714e-13
2.45158e-15
2.73631e-13
-9.58756e-16
2.72882e-13
3.74649e-16
2.73174e-13
-1.46661e-16
2.73056e-13
5.83802e-17
2.73107e-13
-2.58416e-17
2.73069e-13
1.41279e-17
2.73099e-13
-1.15388e-17
2.73066e-13
1.02183e-17
2.73097e-13
-9.92902e-18
2.7307e-13
8.69717e-18
2.73094e-13
-6.68673e-18
2.73083e-13
4.82194e-18
2.73091e-13
-2.6338e-18
2.73087e-13
2.00361e-18
2.73092e-13
-1.54832e-18
1.48638e-18
5.0105e-13
8.25991e-14
4.83136e-13
8.53639e-15
4.901e-13
-3.32066e-15
4.87375e-13
1.30091e-15
4.88439e-13
-5.08301e-16
4.88024e-13
1.98314e-16
4.88185e-13
-7.75698e-17
4.88118e-13
3.03982e-17
4.88147e-13
-1.38905e-17
4.88113e-13
4.98366e-18
4.88142e-13
-4.79332e-18
4.88106e-13
2.64236e-18
4.8814e-13
-2.90528e-18
4.8811e-13
2.39749e-18
4.88138e-13
-8.66097e-19
4.88129e-13
2.11817e-18
4.88137e-13
2.03909e-20
4.88134e-13
3.64476e-19
4.88139e-13
-1.71784e-19
5.23018e-19
5.54556e-13
-8.25972e-14
5.44255e-13
-8.5361e-15
5.48262e-13
3.31927e-15
5.46698e-13
-1.29936e-15
5.47306e-13
5.07525e-16
5.47069e-13
-1.98363e-16
5.4716e-13
7.72315e-17
5.47121e-13
-3.14718e-17
5.47138e-13
1.26977e-17
5.47108e-13
-1.25207e-17
5.47136e-13
9.53291e-18
5.471e-13
-1.17188e-17
5.47134e-13
1.08228e-17
5.47104e-13
-9.49891e-18
5.47132e-13
8.8156e-18
5.47124e-13
-2.54598e-18
5.47132e-13
2.61851e-18
5.47129e-13
-8.95767e-19
5.47135e-13
1.93668e-18
-1.19326e-18
5.0105e-13
-1.8527e-13
4.83136e-13
-1.60806e-14
4.901e-13
6.2588e-15
4.87375e-13
-2.45104e-15
4.88439e-13
9.58338e-16
4.88024e-13
-3.74676e-16
4.88185e-13
1.46239e-16
4.88118e-13
-5.89264e-17
4.88147e-13
2.52107e-17
4.88113e-13
-1.907e-17
4.88142e-13
1.51957e-17
4.88106e-13
-1.6616e-17
4.8814e-13
1.56618e-17
4.8811e-13
-1.37018e-17
4.88138e-13
1.19657e-17
4.88129e-13
-5.05676e-18
4.88137e-13
3.80458e-18
4.88134e-13
-1.81888e-18
4.88139e-13
2.47026e-18
-1.8848e-18
2.9626e-13
2.64099e-13
2.76616e-13
2.71714e-13
2.73631e-13
2.72882e-13
2.73174e-13
2.73056e-13
2.73107e-13
2.73069e-13
2.73099e-13
2.73066e-13
2.73097e-13
2.7307e-13
2.73094e-13
2.73083e-13
2.73091e-13
2.73087e-13
2.73092e-13
)
;

boundaryField
{
    inlet
    {
        type            calculated;
        value           nonuniform List<scalar> 
25
(
-6.668e-13
-6.668e-13
-6.668e-13
-6.668e-13
-6.668e-13
-6.668e-13
-6.668e-13
-6.668e-13
-6.668e-13
-6.668e-13
-6.668e-13
-6.668e-13
-6.668e-13
-6.668e-13
-6.668e-13
-6.668e-13
-6.668e-13
-6.668e-13
-6.668e-13
-6.668e-13
-6.668e-13
-6.668e-13
-6.668e-13
-6.668e-13
-6.668e-13
)
;
    }
    outlet
    {
        type            calculated;
        value           nonuniform List<scalar> 
25
(
2.73089e-13
4.88136e-13
5.47131e-13
4.88136e-13
2.73089e-13
4.88136e-13
9.58198e-13
1.09712e-12
9.58198e-13
4.88136e-13
5.47131e-13
1.09712e-12
1.26269e-12
1.09712e-12
5.47131e-13
4.88136e-13
9.58198e-13
1.09712e-12
9.58198e-13
4.88136e-13
2.73089e-13
4.88136e-13
5.47131e-13
4.88136e-13
2.73089e-13
)
;
    }
    Walls
    {
        type            calculated;
        value           uniform 0;
    }
}


// ************************************************************************* //
