/*--------------------------------*- C++ -*----------------------------------*\
  =========                 |
  \\      /  F ield         | OpenFOAM: The Open Source CFD Toolbox
   \\    /   O peration     | Website:  https://openfoam.org
    \\  /    A nd           | Version:  13
     \\/     M anipulation  |
\*---------------------------------------------------------------------------*/
FoamFile
{
    format      ascii;
    class       volVectorField;
    location    "35";
    object      U;
}
// * * * * * * * * * * * * * * * * * * * * * * * * * * * * * * * * * * * * * //

dimensions      [0 1 -1 0 0 0 0];

internalField   nonuniform List<vector> 
500
(
(0.00047607 5.58814e-06 5.58814e-06)
(0.000764233 7.17198e-07 7.17198e-07)
(0.000650844 -2.8023e-07 -2.80229e-07)
(0.000695224 1.0969e-07 1.0969e-07)
(0.000677839 -4.29008e-08 -4.29005e-08)
(0.000684644 1.67735e-08 1.6773e-08)
(0.000681984 -6.56582e-09 -6.56574e-09)
(0.000683013 2.6165e-09 2.61626e-09)
(0.000682623 -1.12719e-09 -1.12838e-09)
(0.000682745 6.44206e-10 6.40189e-10)
(0.000682702 -4.96674e-10 -4.91949e-10)
(0.000682708 4.54411e-10 4.48661e-10)
(0.0006827 -4.35318e-10 -4.27259e-10)
(0.000682714 3.77191e-10 3.7255e-10)
(0.000682695 -3.05921e-10 -2.98485e-10)
(0.00068273 1.84333e-10 1.86044e-10)
(0.000682713 -1.1203e-10 -1.13936e-10)
(0.000682725 7.79047e-11 7.85496e-11)
(0.000682724 -7.28779e-11 -7.31331e-11)
(0.000682727 6.19491e-11 6.35378e-11)
(0.000850492 7.80645e-06 8.00245e-06)
(0.00136571 6.77629e-07 1.2693e-06)
(0.00116341 -2.63055e-07 -4.95173e-07)
(0.00124266 1.02986e-07 1.93414e-07)
(0.00121161 -4.02337e-08 -7.53305e-08)
(0.00122377 1.57089e-08 2.93576e-08)
(0.00121902 -6.13002e-09 -1.14281e-08)
(0.00122086 2.45461e-09 4.61156e-09)
(0.00122016 -1.08399e-09 -2.02725e-09)
(0.00122038 6.86618e-10 1.63298e-09)
(0.0012203 -5.95412e-10 -1.41559e-09)
(0.00122032 5.59203e-10 1.46804e-09)
(0.0012203 -5.69167e-10 -1.41419e-09)
(0.00122032 4.70699e-10 1.25283e-09)
(0.00122029 -4.07454e-10 -1.04765e-09)
(0.00122035 2.16059e-10 4.95038e-10)
(0.00122032 -1.24955e-10 -3.27456e-10)
(0.00122034 8.78118e-11 2.15495e-10)
(0.00122034 -8.91364e-11 -2.90153e-10)
(0.00122034 8.0421e-11 1.87578e-10)
(0.000953114 4.33583e-12 7.7892e-06)
(0.00153066 1.38702e-11 1.37673e-06)
(0.00130404 -1.84526e-11 -5.36998e-07)
(0.00139284 2.78983e-11 2.09667e-07)
(0.00135805 -2.55572e-11 -8.16123e-08)
(0.00137167 4.77131e-12 3.17704e-08)
(0.00136634 -1.22262e-11 -1.23457e-08)
(0.00136841 -2.39643e-11 4.98001e-09)
(0.00136762 -2.73302e-11 -2.23914e-09)
(0.00136788 -2.27778e-10 1.76897e-09)
(0.00136778 1.46468e-10 -1.58726e-09)
(0.0013678 -2.938e-10 1.61813e-09)
(0.00136778 2.28689e-10 -1.58028e-09)
(0.00136781 -2.3713e-10 1.38822e-09)
(0.00136778 2.10844e-10 -1.1589e-09)
(0.00136784 -2.24216e-11 5.85156e-10)
(0.00136781 6.38211e-11 -3.76737e-10)
(0.00136783 1.96491e-12 2.65052e-10)
(0.00136783 4.50802e-11 -3.11924e-10)
(0.00136783 -9.02806e-12 2.20134e-10)
(0.000850492 -7.80645e-06 8.00245e-06)
(0.00136571 -6.77607e-07 1.26931e-06)
(0.00116341 2.63028e-07 -4.95183e-07)
(0.00124266 -1.02948e-07 1.9344e-07)
(0.00121161 4.0203e-08 -7.53628e-08)
(0.00122377 -1.57061e-08 2.93585e-08)
(0.00121902 6.10684e-09 -1.14277e-08)
(0.00122086 -2.4911e-09 4.59259e-09)
(0.00122016 1.04326e-09 -2.04574e-09)
(0.00122038 -1.03444e-09 1.50279e-09)
(0.0012203 8.31322e-10 -1.32155e-09)
(0.00122032 -1.01231e-09 1.31981e-09)
(0.0012203 9.39556e-10 -1.285e-09)
(0.00122032 -8.32159e-10 1.1285e-09)
(0.00122029 7.48306e-10 -9.28117e-10)
(0.00122035 -2.46447e-10 4.91249e-10)
(0.00122032 2.18677e-10 -3.06631e-10)
(0.00122034 -8.13586e-11 2.13088e-10)
(0.00122034 1.53424e-10 -2.51539e-10)
(0.00122034 -9.7292e-11 1.83293e-10)
(0.00047607 -5.58814e-06 5.58815e-06)
(0.000764233 -7.17188e-07 7.17217e-07)
(0.000650844 2.80222e-07 -2.80236e-07)
(0.000695224 -1.09681e-07 1.09699e-07)
(0.000677839 4.28944e-08 -4.29134e-08)
(0.000684644 -1.67751e-08 1.67766e-08)
(0.000681984 6.55387e-09 -6.57478e-09)
(0.000683013 -2.6288e-09 2.61064e-09)
(0.000682623 1.11237e-09 -1.14391e-09)
(0.000682745 -7.68036e-10 5.78782e-10)
(0.000682702 5.89219e-10 -4.42791e-10)
(0.000682708 -6.19597e-10 3.69597e-10)
(0.0006827 5.81151e-10 -3.48329e-10)
(0.000682714 -5.06225e-10 3.12463e-10)
(0.000682695 4.38318e-10 -2.2707e-10)
(0.00068273 -1.9148e-10 1.92985e-10)
(0.000682713 1.4033e-10 -1.08689e-10)
(0.000682725 -7.07454e-11 8.78556e-11)
(0.000682724 9.22539e-11 -6.02734e-11)
(0.000682727 -6.88313e-11 5.86851e-11)
(0.000850492 8.00245e-06 7.80644e-06)
(0.00136571 1.2693e-06 6.77631e-07)
(0.00116341 -4.95175e-07 -2.63052e-07)
(0.00124266 1.93414e-07 1.02984e-07)
(0.00121161 -7.5331e-08 -4.02328e-08)
(0.00122377 2.93584e-08 1.57082e-08)
(0.00121902 -1.1428e-08 -6.13066e-09)
(0.00122086 4.61176e-09 2.45489e-09)
(0.00122016 -2.02393e-09 -1.09138e-09)
(0.00122038 1.64186e-09 6.70583e-10)
(0.0012203 -1.42755e-09 -5.7022e-10)
(0.00122032 1.48018e-09 5.38254e-10)
(0.0012203 -1.43313e-09 -5.31498e-10)
(0.00122032 1.2627e-09 4.53592e-10)
(0.00122029 -1.06518e-09 -3.72415e-10)
(0.00122035 4.90309e-10 2.26976e-10)
(0.00122032 -3.2235e-10 -1.36622e-10)
(0.00122034 2.1355e-10 9.23091e-11)
(0.00122034 -2.89417e-10 -9.10532e-11)
(0.00122034 1.83337e-10 9.05798e-11)
(0.00166868 1.21319e-05 1.21319e-05)
(0.00268031 1.16081e-06 1.16081e-06)
(0.00228387 -4.50751e-07 -4.50746e-07)
(0.00243924 1.76678e-07 1.76674e-07)
(0.00237837 -6.92249e-08 -6.92228e-08)
(0.00240221 2.70785e-08 2.70772e-08)
(0.00239288 -1.06013e-08 -1.06017e-08)
(0.00239651 4.22507e-09 4.22514e-09)
(0.00239511 -1.89986e-09 -1.90639e-09)
(0.00239559 9.26844e-10 9.03757e-10)
(0.00239541 -7.76473e-10 -7.3746e-10)
(0.00239545 6.56545e-10 6.24544e-10)
(0.00239543 -6.79056e-10 -6.21764e-10)
(0.00239546 5.52007e-10 5.25119e-10)
(0.00239542 -4.52203e-10 -3.99649e-10)
(0.0023955 3.65324e-10 3.77303e-10)
(0.00239546 -2.03572e-10 -2.18308e-10)
(0.00239549 1.5008e-10 1.53943e-10)
(0.00239549 -6.81156e-11 -7.11779e-11)
(0.00239549 1.13693e-10 1.297e-10)
(0.00191031 7.19085e-11 1.28721e-05)
(0.00306875 -1.41983e-11 1.27084e-06)
(0.00261504 -4.96186e-11 -4.93374e-07)
(0.00279288 5.52159e-11 1.9327e-07)
(0.0027232 -1.4926e-11 -7.56096e-08)
(0.00275049 -1.11088e-11 2.95296e-08)
(0.00273981 -1.65225e-11 -1.15455e-08)
(0.00274397 -5.2748e-11 4.60202e-09)
(0.00274237 -2.5463e-11 -2.08519e-09)
(0.00274291 -4.32803e-10 1.06141e-09)
(0.00274271 2.99331e-10 -9.19699e-10)
(0.00274276 -5.56074e-10 8.1339e-10)
(0.00274273 4.66244e-10 -8.0507e-10)
(0.00274277 -4.48116e-10 6.93675e-10)
(0.00274272 4.42355e-10 -5.02509e-10)
(0.00274281 -6.21989e-11 4.36781e-10)
(0.00274277 1.47893e-10 -2.19895e-10)
(0.0027428 -2.95576e-11 1.44025e-10)
(0.0027428 8.44574e-11 -1.10353e-10)
(0.0027428 -3.1217e-11 1.60824e-10)
(0.00166868 -1.21318e-05 1.21319e-05)
(0.00268031 -1.16079e-06 1.16079e-06)
(0.00228387 4.50687e-07 -4.50747e-07)
(0.00243924 -1.76599e-07 1.76671e-07)
(0.00237837 6.91711e-08 -6.92076e-08)
(0.00240221 -2.70789e-08 2.70782e-08)
(0.00239288 1.05765e-08 -1.06013e-08)
(0.00239651 -4.30394e-09 4.22296e-09)
(0.00239511 1.83068e-09 -1.92783e-09)
(0.00239559 -1.60534e-09 9.34991e-10)
(0.00239541 1.24011e-09 -7.88444e-10)
(0.00239545 -1.51593e-09 6.77045e-10)
(0.00239543 1.39718e-09 -6.56427e-10)
(0.00239546 -1.2449e-09 5.7958e-10)
(0.00239542 1.1295e-09 -4.04986e-10)
(0.0023955 -4.27433e-10 3.98081e-10)
(0.00239546 3.96598e-10 -2.00835e-10)
(0.00239549 -1.63935e-10 1.42722e-10)
(0.00239549 2.1025e-10 -7.10129e-11)
(0.00239549 -1.61506e-10 1.20049e-10)
(0.000850492 -8.00242e-06 7.80651e-06)
(0.00136571 -1.26928e-06 6.77624e-07)
(0.00116341 4.95157e-07 -2.63078e-07)
(0.00124266 -1.93404e-07 1.0301e-07)
(0.00121161 7.5335e-08 -4.02375e-08)
(0.00122377 -2.93597e-08 1.57015e-08)
(0.00121902 1.13977e-08 -6.13373e-09)
(0.00122086 -4.62835e-09 2.43788e-09)
(0.00122016 1.99557e-09 -1.09907e-09)
(0.00122038 -1.84108e-09 5.87958e-10)
(0.0012203 1.57855e-09 -5.09429e-10)
(0.00122032 -1.75999e-09 4.45744e-10)
(0.0012203 1.69252e-09 -4.29788e-10)
(0.00122032 -1.47238e-09 3.83502e-10)
(0.00122029 1.30418e-09 -2.64783e-10)
(0.00122035 -4.96694e-10 2.20117e-10)
(0.00122032 3.75865e-10 -9.83816e-11)
(0.00122034 -1.96881e-10 7.23798e-11)
(0.00122034 3.10132e-10 -6.80478e-11)
(0.00122034 -2.00379e-10 7.60758e-11)
(0.000953114 7.78919e-06 4.66693e-12)
(0.00153066 1.37674e-06 1.36182e-11)
(0.00130404 -5.36998e-07 -1.43399e-11)
(0.00139284 2.09666e-07 2.43996e-11)
(0.00135805 -8.1615e-08 -2.36752e-11)
(0.00137167 3.17739e-08 3.79326e-12)
(0.00136634 -1.23486e-08 -1.25753e-11)
(0.00136841 4.98214e-09 -2.35925e-11)
(0.00136762 -2.24622e-09 -3.10523e-11)
(0.00136788 1.76629e-09 -2.41439e-10)
(0.00136778 -1.57734e-09 1.7268e-10)
(0.0013678 1.61933e-09 -3.12776e-10)
(0.00136778 -1.57363e-09 2.66195e-10)
(0.00136781 1.38886e-09 -2.53125e-10)
(0.00136778 -1.1529e-09 2.44991e-10)
(0.00136784 5.91866e-10 -1.44455e-11)
(0.00136781 -3.81681e-10 5.33836e-11)
(0.00136783 2.70657e-10 4.55877e-12)
(0.00136783 -3.1338e-10 4.36199e-11)
(0.00136783 2.21589e-10 1.72296e-12)
(0.00191031 1.28722e-05 6.88145e-11)
(0.00306875 1.27083e-06 -1.17288e-11)
(0.00261504 -4.93379e-07 -4.53962e-11)
(0.00279288 1.93275e-07 5.21375e-11)
(0.0027232 -7.56099e-08 -1.33335e-11)
(0.00275049 2.9529e-08 -1.26939e-11)
(0.00273981 -1.15431e-08 -1.66974e-11)
(0.00274397 4.60069e-09 -5.22555e-11)
(0.00274237 -2.0714e-09 -3.62246e-11)
(0.00274291 1.09243e-09 -4.45702e-10)
(0.00274271 -9.73172e-10 3.25118e-10)
(0.00274276 8.53099e-10 -5.72025e-10)
(0.00274273 -8.8003e-10 5.08043e-10)
(0.00274277 7.2702e-10 -4.60227e-10)
(0.00274272 -5.71552e-10 4.83063e-10)
(0.00274281 4.16781e-10 -4.47219e-11)
(0.00274277 -1.9812e-10 1.30268e-10)
(0.0027428 1.35119e-10 -2.37086e-11)
(0.0027428 -1.0578e-10 8.13601e-11)
(0.0027428 1.40617e-10 -1.46173e-11)
(0.00219827 2.63268e-11 2.69027e-11)
(0.00353167 1.21602e-11 1.1228e-11)
(0.00300974 -5.96332e-11 -5.29667e-11)
(0.00321433 7.42667e-11 6.87323e-11)
(0.00313417 -4.42313e-11 -4.11284e-11)
(0.00316557 1.15947e-12 -4.532e-13)
(0.00315328 -2.26781e-11 -2.30249e-11)
(0.00315806 -6.41059e-11 -6.35997e-11)
(0.00315622 -8.1327e-11 -8.84817e-11)
(0.00315685 -4.9972e-10 -5.23461e-10)
(0.00315662 3.07821e-10 3.53232e-10)
(0.00315667 -6.13175e-10 -6.46051e-10)
(0.00315664 5.14532e-10 5.80913e-10)
(0.00315668 -4.82992e-10 -5.10578e-10)
(0.00315663 5.09948e-10 5.71137e-10)
(0.00315673 -2.50938e-11 -9.86547e-12)
(0.00315668 1.62085e-10 1.42961e-10)
(0.00315672 -1.98818e-11 -1.56787e-11)
(0.00315671 1.17214e-10 1.13895e-10)
(0.00315672 -4.24205e-11 -2.16599e-11)
(0.00191031 -1.2872e-05 1.48358e-11)
(0.00306875 -1.27091e-06 6.11999e-12)
(0.00261504 4.93292e-07 -3.55612e-11)
(0.00279288 -1.93163e-07 4.59846e-11)
(0.0027232 7.55815e-08 -2.61263e-11)
(0.00275049 -2.95692e-08 2.09163e-12)
(0.00273981 1.15308e-08 -2.1134e-11)
(0.00274397 -4.718e-09 -4.88895e-11)
(0.00274237 2.01754e-09 -7.63781e-11)
(0.00274291 -1.93949e-09 -3.95329e-10)
(0.00274271 1.5525e-09 2.57653e-10)
(0.00274276 -1.89673e-09 -4.86908e-10)
(0.00274273 1.77258e-09 4.43313e-10)
(0.00274277 -1.56919e-09 -3.78673e-10)
(0.00274272 1.43974e-09 4.43842e-10)
(0.00274281 -5.29485e-10 3.28336e-12)
(0.00274277 4.93378e-10 1.1246e-10)
(0.0027428 -2.15555e-10 -1.0638e-11)
(0.0027428 2.94211e-10 8.83513e-11)
(0.0027428 -2.12144e-10 -2.54201e-11)
(0.000953114 -7.7893e-06 4.60589e-11)
(0.00153066 -1.37659e-06 -2.89244e-12)
(0.00130404 5.37013e-07 -3.85724e-11)
(0.00139284 -2.09684e-07 4.38733e-11)
(0.00135805 8.15628e-08 -1.72862e-11)
(0.00137167 -3.1723e-08 -6.48667e-12)
(0.00136634 1.22822e-08 -5.95139e-12)
(0.00136841 -4.97368e-09 -3.26748e-11)
(0.00136762 2.13832e-09 -3.23637e-11)
(0.00136788 -1.9494e-09 -2.25013e-10)
(0.00136778 1.70674e-09 1.54073e-10)
(0.0013678 -1.9043e-09 -2.68243e-10)
(0.00136778 1.83149e-09 2.50189e-10)
(0.00136781 -1.58661e-09 -2.1199e-10)
(0.00136778 1.3641e-09 2.51971e-10)
(0.00136784 -5.10021e-10 -1.12686e-11)
(0.00136781 3.42948e-10 7.35961e-11)
(0.00136783 -1.48318e-10 -2.16341e-11)
(0.00136783 3.2526e-10 5.09188e-11)
(0.00136783 -2.30552e-10 -1.02669e-11)
(0.000850492 8.00245e-06 -7.80644e-06)
(0.00136571 1.26931e-06 -6.7761e-07)
(0.00116341 -4.95181e-07 2.63028e-07)
(0.00124266 1.93437e-07 -1.02949e-07)
(0.00121161 -7.53627e-08 4.0204e-08)
(0.00122377 2.93614e-08 -1.57068e-08)
(0.00121902 -1.14291e-08 6.10746e-09)
(0.00122086 4.59426e-09 -2.49121e-09)
(0.00122016 -2.04116e-09 1.04606e-09)
(0.00122038 1.50388e-09 -1.0305e-09)
(0.0012203 -1.31343e-09 8.28747e-10)
(0.00122032 1.32169e-09 -1.00812e-09)
(0.0012203 -1.28321e-09 9.3627e-10)
(0.00122032 1.12815e-09 -8.28777e-10)
(0.00122029 -9.28392e-10 7.45181e-10)
(0.00122035 4.8685e-10 -2.48333e-10)
(0.00122032 -3.0486e-10 2.1951e-10)
(0.00122034 2.1119e-10 -8.30591e-11)
(0.00122034 -2.51968e-10 1.53886e-10)
(0.00122034 1.84395e-10 -9.67571e-11)
(0.00166868 1.21319e-05 -1.21318e-05)
(0.00268031 1.16079e-06 -1.16079e-06)
(0.00228387 -4.50752e-07 4.50691e-07)
(0.00243924 1.76675e-07 -1.76603e-07)
(0.00237837 -6.92089e-08 6.91721e-08)
(0.00240221 2.70777e-08 -2.70781e-08)
(0.00239288 -1.06e-08 1.05754e-08)
(0.00239651 4.22234e-09 -4.30274e-09)
(0.00239511 -1.92217e-09 1.82798e-09)
(0.00239559 9.60338e-10 -1.61424e-09)
(0.00239541 -8.33053e-10 1.26234e-09)
(0.00239545 7.11656e-10 -1.52715e-09)
(0.00239543 -7.1766e-10 1.42481e-09)
(0.00239546 6.09509e-10 -1.25494e-09)
(0.00239542 -4.60394e-10 1.15442e-09)
(0.0023955 3.87516e-10 -4.21298e-10)
(0.00239546 -1.86991e-10 3.88301e-10)
(0.00239549 1.39124e-10 -1.61979e-10)
(0.00239549 -6.7326e-11 2.0827e-10)
(0.00239549 1.03672e-10 -1.51732e-10)
(0.00191031 1.79734e-11 -1.2872e-05)
(0.00306875 3.59999e-12 -1.27091e-06)
(0.00261504 -3.98464e-11 4.93296e-07)
(0.00279288 4.90996e-11 -1.93167e-07)
(0.0027232 -2.77397e-11 7.55838e-08)
(0.00275049 3.72009e-12 -2.95699e-08)
(0.00273981 -2.094e-11 1.15307e-08)
(0.00274397 -4.93685e-11 -4.71745e-09)
(0.00274237 -6.54325e-11 2.01539e-09)
(0.00274291 -3.81864e-10 -1.94873e-09)
(0.00274271 2.31068e-10 1.57415e-09)
(0.00274276 -4.70179e-10 -1.9099e-09)
(0.00274273 4.00295e-10 1.80304e-09)
(0.00274277 -3.65923e-10 -1.58046e-09)
(0.00274272 4.02025e-10 1.46772e-09)
(0.00274281 -1.44484e-11 -5.22935e-10)
(0.00274277 1.30369e-10 4.84253e-10)
(0.0027428 -1.66189e-11 -2.14297e-10)
(0.0027428 9.14677e-11 2.92364e-10)
(0.0027428 -4.22252e-11 -2.01055e-10)
(0.00166868 -1.21318e-05 -1.21318e-05)
(0.00268031 -1.16089e-06 -1.16089e-06)
(0.00228387 4.50688e-07 4.50691e-07)
(0.00243924 -1.76594e-07 -1.76596e-07)
(0.00237837 6.92057e-08 6.92072e-08)
(0.00240221 -2.71202e-08 -2.71209e-08)
(0.00239288 1.05985e-08 1.05984e-08)
(0.00239651 -4.32123e-09 -4.32075e-09)
(0.00239511 1.87219e-09 1.86911e-09)
(0.00239559 -1.62881e-09 -1.63558e-09)
(0.00239541 1.27869e-09 1.29521e-09)
(0.00239545 -1.52042e-09 -1.52954e-09)
(0.00239543 1.42028e-09 1.44446e-09)
(0.00239546 -1.25755e-09 -1.26511e-09)
(0.00239542 1.16215e-09 1.18486e-09)
(0.0023955 -4.70897e-10 -4.63758e-10)
(0.00239546 4.36673e-10 4.28006e-10)
(0.00239549 -2.15991e-10 -2.1432e-10)
(0.00239549 2.22031e-10 2.20475e-10)
(0.00239549 -1.69144e-10 -1.59523e-10)
(0.000850492 -8.00253e-06 -7.80645e-06)
(0.00136571 -1.26918e-06 -6.77603e-07)
(0.00116341 4.95205e-07 2.63036e-07)
(0.00124266 -1.93461e-07 -1.0296e-07)
(0.00121161 7.53166e-08 4.0207e-08)
(0.00122377 -2.93136e-08 -1.57033e-08)
(0.00121902 1.13691e-08 6.1119e-09)
(0.00122086 -4.58557e-09 -2.47988e-09)
(0.00122016 1.96635e-09 1.04443e-09)
(0.00122038 -1.66938e-09 -9.32883e-10)
(0.0012203 1.44669e-09 7.5659e-10)
(0.00122032 -1.59023e-09 -8.77808e-10)
(0.0012203 1.52357e-09 8.30116e-10)
(0.00122032 -1.3216e-09 -7.21671e-10)
(0.00122029 1.11436e-09 6.4957e-10)
(0.00122035 -4.30043e-10 -2.26859e-10)
(0.00122032 2.68498e-10 1.86334e-10)
(0.00122034 -1.04737e-10 -7.49838e-11)
(0.00122034 2.59991e-10 1.37096e-10)
(0.00122034 -1.9417e-10 -9.36723e-11)
(0.00047607 5.58815e-06 -5.58814e-06)
(0.000764233 7.17216e-07 -7.17189e-07)
(0.000650844 -2.80237e-07 2.80221e-07)
(0.000695224 1.097e-07 -1.0968e-07)
(0.000677839 -4.29137e-08 4.28941e-08)
(0.000684644 1.67772e-08 -1.67749e-08)
(0.000681984 -6.57476e-09 6.55413e-09)
(0.000683013 2.61083e-09 -2.62876e-09)
(0.000682623 -1.14193e-09 1.11303e-09)
(0.000682745 5.83871e-10 -7.61896e-10)
(0.000682702 -4.49816e-10 5.80158e-10)
(0.000682708 3.76628e-10 -6.10933e-10)
(0.0006827 -3.59641e-10 5.6886e-10)
(0.000682714 3.18109e-10 -4.9877e-10)
(0.000682695 -2.37511e-10 4.27629e-10)
(0.00068273 1.90184e-10 -1.92521e-10)
(0.000682713 -1.05663e-10 1.42192e-10)
(0.000682725 8.66016e-11 -7.13982e-11)
(0.000682724 -5.99042e-11 9.26511e-11)
(0.000682727 5.61976e-11 -7.08248e-11)
(0.000850492 7.80651e-06 -8.00243e-06)
(0.00136571 6.77624e-07 -1.26928e-06)
(0.00116341 -2.63081e-07 4.95152e-07)
(0.00124266 1.03012e-07 -1.934e-07)
(0.00121161 -4.02384e-08 7.5334e-08)
(0.00122377 1.57022e-08 -2.93616e-08)
(0.00121902 -6.13331e-09 1.13997e-08)
(0.00122086 2.4377e-09 -4.62979e-09)
(0.00122016 -1.09506e-09 1.99619e-09)
(0.00122038 6.00379e-10 -1.8233e-09)
(0.0012203 -5.30621e-10 1.54332e-09)
(0.00122032 4.62577e-10 -1.73596e-09)
(0.0012203 -4.60424e-10 1.65117e-09)
(0.00122032 3.97561e-10 -1.45041e-09)
(0.00122029 -2.92709e-10 1.26886e-09)
(0.00122035 2.13223e-10 -4.99528e-10)
(0.00122032 -9.00597e-11 3.82767e-10)
(0.00122034 6.97018e-11 -1.98605e-10)
(0.00122034 -6.68138e-11 3.11938e-10)
(0.00122034 6.81269e-11 -2.09113e-10)
(0.000953114 4.55716e-11 -7.7893e-06)
(0.00153066 -2.29285e-12 -1.37658e-06)
(0.00130404 -4.18961e-11 5.37011e-07)
(0.00139284 4.67804e-11 -2.09682e-07)
(0.00135805 -1.88712e-11 8.15616e-08)
(0.00137167 -5.91262e-12 -3.17233e-08)
(0.00136634 -5.73891e-12 1.22826e-08)
(0.00136841 -3.31603e-11 -4.97412e-09)
(0.00136762 -2.98231e-11 2.13649e-09)
(0.00136788 -2.16103e-10 -1.94533e-09)
(0.00136778 1.34928e-10 1.69674e-09)
(0.0013678 -2.55912e-10 -1.8979e-09)
(0.00136778 2.23057e-10 1.82049e-09)
(0.00136781 -2.01528e-10 -1.58044e-09)
(0.00136778 2.27113e-10 1.35507e-09)
(0.00136784 -1.75347e-11 -5.08857e-10)
(0.00136781 8.18834e-11 3.43773e-10)
(0.00136783 -2.33259e-11 -1.47616e-10)
(0.00136783 5.20611e-11 3.25915e-10)
(0.00136783 -1.9013e-11 -2.33323e-10)
(0.000850492 -7.80645e-06 -8.00253e-06)
(0.00136571 -6.77602e-07 -1.26918e-06)
(0.00116341 2.63035e-07 4.95205e-07)
(0.00124266 -1.02959e-07 -1.93461e-07)
(0.00121161 4.02061e-08 7.53167e-08)
(0.00122377 -1.57026e-08 -2.9314e-08)
(0.00121902 6.11148e-09 1.13694e-08)
(0.00122086 -2.47987e-09 -4.58572e-09)
(0.00122016 1.04499e-09 1.96623e-09)
(0.00122038 -9.33383e-10 -1.6671e-09)
(0.0012203 7.55476e-10 1.44295e-09)
(0.00122032 -8.78131e-10 -1.58723e-09)
(0.0012203 8.26766e-10 1.51977e-09)
(0.00122032 -7.22221e-10 -1.3188e-09)
(0.00122029 6.45917e-10 1.11138e-09)
(0.00122035 -2.28967e-10 -4.29684e-10)
(0.00122032 1.88777e-10 2.68505e-10)
(0.00122034 -7.50791e-11 -1.04893e-10)
(0.00122034 1.37294e-10 2.60177e-10)
(0.00122034 -9.63182e-11 -1.94391e-10)
(0.00047607 -5.58814e-06 -5.58814e-06)
(0.000764233 -7.17189e-07 -7.17189e-07)
(0.000650844 2.8023e-07 2.80229e-07)
(0.000695224 -1.09691e-07 -1.0969e-07)
(0.000677839 4.28982e-08 4.28982e-08)
(0.000684644 -1.67715e-08 -1.67717e-08)
(0.000681984 6.55778e-09 6.55799e-09)
(0.000683013 -2.62033e-09 -2.62046e-09)
(0.000682623 1.12009e-09 1.12009e-09)
(0.000682745 -7.03636e-10 -7.0189e-10)
(0.000682702 5.41585e-10 5.38319e-10)
(0.000682708 -5.38729e-10 -5.36388e-10)
(0.0006827 5.06229e-10 5.0258e-10)
(0.000682714 -4.42653e-10 -4.40499e-10)
(0.000682695 3.67228e-10 3.64185e-10)
(0.00068273 -1.87407e-10 -1.87475e-10)
(0.000682713 1.23117e-10 1.23544e-10)
(0.000682725 -6.85789e-11 -6.87263e-11)
(0.000682724 7.93706e-11 7.95493e-11)
(0.000682727 -6.58733e-11 -6.65031e-11)
)
;

boundaryField
{
    inlet
    {
        type            fixedValue;
        value           uniform (0.001667 0 0);
    }
    outlet
    {
        type            zeroGradient;
    }
    Walls
    {
        type            noSlip;
    }
}


// ************************************************************************* //
