/*--------------------------------*- C++ -*----------------------------------*\
  =========                 |
  \\      /  F ield         | OpenFOAM: The Open Source CFD Toolbox
   \\    /   O peration     | Website:  https://openfoam.org
    \\  /    A nd           | Version:  13
     \\/     M anipulation  |
\*---------------------------------------------------------------------------*/
FoamFile
{
    format      ascii;
    class       volScalarField;
    location    "64";
    object      p;
}
// * * * * * * * * * * * * * * * * * * * * * * * * * * * * * * * * * * * * * //

dimensions      [0 2 -2 0 0 0 0];

internalField   nonuniform List<scalar> 
755
(
23.2774
23.2003
17.3849
106.873
6.33174
22.0987
128.664
75.2952
40.8946
1.69365
71.0031
132.358
7.36141
129.917
3.97351
18.3429
129.688
50.6602
2.7946
36.953
128.716
132.338
18.564
35.8632
52.1011
19.6662
18.3429
51.8909
106.549
128.718
21.8778
22.0215
69.9004
122.567
23.0568
16.2075
17.3849
19.7429
111.087
19.5227
23.0568
45.5748
132.318
93.9797
50.5249
103.285
2.87184
110.991
111.447
111.927
8.77235
6.40849
10.063
7.49856
132.905
8.54749
14.8078
123.885
95.1278
16.2074
95.1377
95.0243
95.0259
95.1399
9.97773
7.58517
77.7667
45.346
2.87185
96.8588
107.08
81.3221
3.82994
7.58183
130.968
52.4799
18.4865
52.4526
57.4171
41.8988
102.425
123.362
35.7816
78.8601
60.3506
70.2453
42.0444
44.4031
70.1297
3.97343
70.9027
132.088
106.978
132.332
110.886
42.1204
43.2971
4.05053
42.1211
43.2105
8.69137
106.545
106.523
77.6902
44.2591
43.0738
107.652
45.3474
78.4771
5.22808
10.9149
44.2594
78.3906
75.2922
52.496
29.4132
51.5976
78.3572
16.1305
128.502
43.2938
9.63407
36.7243
77.4926
15.9873
4.05056
5.15099
60.0839
3.82993
34.443
60.0882
91.2982
41.8989
45.4911
76.4032
102.2
93.9798
24.4532
22.0215
40.9623
6.18689
50.5255
63.5897
76.4838
102.344
9.63557
17.3078
77.3463
44.4187
76.259
50.7434
17.1649
45.7748
49.5069
68.9811
35.6382
132.091
21.8778
7.36162
9.77911
122.872
103.188
122.595
61.1334
103.226
23.2775
8.7903
20.9196
50.6781
122.68
70.9398
34.6621
76.2587
43.0736
1.69366
106.526
5.15083
131.065
106.875
69.0323
49.5826
69.0541
50.7644
43.214
95.1456
19.5227
122.785
76.4171
40.9621
75.2095
17.1649
20.6998
9.8628
111.403
35.7974
20.8425
69.9036
130.856
7.502
36.7257
77.3475
17.3078
2.79459
130.857
20.6998
130.971
35.8812
2.65139
19.7429
18.5639
36.8693
42.0448
16.1306
38.0047
131.063
2.65138
22.0988
77.5678
44.5023
19.6661
102.525
102.611
132.885
15.9872
6.40917
37.1531
20.9196
49.5859
8.70686
6.18694
51.5998
18.4865
128.659
37.7263
60.1634
51.7942
5.00829
5.00825
52.0021
20.8424
45.6898
44.4845
129.839
60.8901
129.689
8.54775
70.0465
26.7913
6.33209
76.4999
5.22801
123.401
70.3303
93.8905
129.916
129.839
23.2003
1.6164
-0.433704
-0.433732
-0.248347
-0.248305
0.412185
0.412194
135.425
134.995
134.983
135.478
135.116
133.453
133.103
126.334
128.51
33.3931
55.1935
127.178
124.878
124.784
127.053
127.632
123.613
124.902
125.465
123.769
121.151
120.896
122.841
31.9627
31.4352
119.388
120.975
121.47
119.724
117.726
119.474
119.997
117.943
116.15
117.766
118.232
116.37
114.565
116.202
116.665
114.78
113.215
112.958
114.614
115.074
111.64
113.036
113.508
111.792
110.795
109.848
109.187
110.308
110.564
109.418
107.766
66.7811
32.3101
106.37
104.765
104.493
106.67
103.72
103.483
104.574
105.049
101.541
101.553
102.205
100.833
121.499
100.614
101.254
97.342
97.2694
98.2739
96.3455
97.2806
96.833
96.3091
95.9749
93.8895
92.0886
92.3575
94.2025
92.1946
92.6857
91.1752
91.0321
90.7314
89.9026
89.5554
90.0385
90.2137
89.5913
88.3287
87.3817
86.3866
88.0183
88.8174
85.6417
85.7225
85.46
84.8458
85.9276
85.6481
84.9795
82.4163
82.4689
81.1995
81.5983
81.4702
82.5113
83.0556
81.93
79.7354
80.1268
81.3061
79.9609
80.4342
78.7804
78.5776
75.0714
74.0476
74.1414
74.075
74.1424
72.2254
72.4954
74.3559
71.429
71.1811
72.3277
72.8155
68.7819
67.6544
67.2278
67.6877
68.0809
67.3709
66.0934
65.156
64.1831
65.7919
66.6212
64.2376
62.345
63.9209
63.6886
62.6741
60.9247
61.3915
61.3108
62.5235
63.0649
60.2725
59.2367
59.0767
58.6206
60.3919
57.0819
57.4068
58.6118
56.0963
57.1905
55.7728
54.4052
54.0557
55.8847
56.465
52.6945
54.1679
54.6833
52.9823
49.4888
47.9426
47.6721
49.7962
46.3845
46.6249
47.7761
48.2644
46.8732
46.3475
40.8703
39.3186
39.049
41.1785
37.7632
37.8268
39.1516
39.6396
38.5848
38.1462
37.0679
34.1455
34.6608
34.6005
35.6391
34.0391
33.2045
34.1476
31.5324
30.909
32.9578
33.6131
31.3427
30.8437
30.0671
28.6826
28.8181
30.036
27.8311
28.6803
28.0298
28.0545
66.7781
32.3569
26.6952
27.83
100.791
25.6405
25.5656
25.6412
25.4142
25.4141
24.235
24.3762
24.4532
24.235
13.8723
15.0285
14.9519
15.0285
13.7801
13.8725
13.8049
14.8079
12.2285
14.0884
11.9591
10.7366
12.0614
12.5492
11.4951
11.0561
11.1624
10.673
1.61638
1.46813
132.956
120.997
125.562
123.441
127.287
119.945
118.149
116.568
114.984
113.416
111.424
101.698
109.448
101.144
105.386
103.61
121.404
98.2465
95.9794
93.893
92.9681
90.8492
89.5992
89.8894
86.4552
85.0924
85.1902
83.1942
81.1122
80.6439
75.2126
75.0717
73.1092
71.3227
68.9468
67.4419
67.6276
63.5362
63.1797
60.9974
59.1342
58.5708
57.1011
57.3213
56.5131
54.6607
52.8522
49.5093
48.555
46.7672
40.8941
39.9322
38.2525
31.2381
30.7728
28.8819
28.0387
26.7895
25.566
24.3763
12.842
10.6361
1.46813
133.335
125.305
124.927
119.879
118.134
119.406
116.579
117.67
114.985
116.11
114.523
113.419
112.955
104.987
104.612
92.6332
92.2288
88.5428
88.274
85.7995
82.889
82.5375
80.5161
80.0148
74.0737
72.7624
72.3633
66.3078
66.0383
63.0298
62.542
58.4562
56.3477
54.5886
55.857
54.1069
48.2121
47.8114
46.4481
39.5864
39.1866
33.4988
34.5981
33.2448
28.0175
14.952
12.4959
13.8044
12.0964
134.683
128.163
127.444
125.037
124.282
121.727
119.579
117.868
116.298
114.712
113.144
112.439
83.6285
110.574
105.71
104.695
104.032
100.945
92.3073
91.6221
90.5077
90.7928
88.2768
88.9651
87.395
85.8371
55.0027
82.6509
81.0822
80.0161
79.3057
73.4745
72.4419
71.761
68.3089
68.8032
66.061
66.7309
65.1626
62.6184
63.6452
59.0721
59.651
56.0019
54.2771
53.5251
48.9228
47.8895
47.208
40.2986
39.2655
34.4512
32.1091
34.0881
26.6929
127.581
97.4181
13.208
12.1754
125.436
119.777
117.995
116.429
114.841
113.28
110.233
121.084
105.119
93.342
92.7352
89.7921
89.0994
90.2339
85.8749
85.8574
83.0509
84.0835
80.4956
72.8699
67.603
66.8559
67.8492
63.0475
56.9817
57.7783
56.3609
54.4811
48.3176
39.6931
84.1436
29.3476
26.5788
12.6028
58.6729
97.4093
61.8597
89.0905
66.8432
110.355
98.2215
97.368
30.755
89.0112
128.067
89.0202
26.5791
128.201
128.201
126.406
126.008
122.093
120.376
118.797
120.266
117.155
118.498
115.586
116.915
114.006
115.327
113.763
110.385
108.582
109.72
109.608
85.4189
108.552
101.692
98.2316
)
;

boundaryField
{
    inlet
    {
        type            zeroGradient;
    }
    Walls
    {
        type            zeroGradient;
    }
    outlet
    {
        type            fixedValue;
        value           uniform 0;
    }
}


// ************************************************************************* //
