/*--------------------------------*- C++ -*----------------------------------*\
  =========                 |
  \\      /  F ield         | OpenFOAM: The Open Source CFD Toolbox
   \\    /   O peration     | Website:  https://openfoam.org
    \\  /    A nd           | Version:  13
     \\/     M anipulation  |
\*---------------------------------------------------------------------------*/
FoamFile
{
    format      ascii;
    class       surfaceScalarField;
    location    "64";
    object      phi;
}
// * * * * * * * * * * * * * * * * * * * * * * * * * * * * * * * * * * * * * //

dimensions      [0 3 -1 0 0 0 0];

internalField   nonuniform List<scalar> 
1108
(
-2.21081e-13
8.33399e-09
-8.33406e-09
8.33379e-09
-8.33377e-09
-8.33547e-09
-7.5211e-14
8.33517e-09
8.2812e-09
-8.13831e-09
-1.42735e-10
-8.32091e-09
8.3211e-09
8.33441e-09
-8.33411e-09
1.75821e-13
-8.31691e-09
8.31682e-09
-1.3353e-11
-8.30006e-09
8.3131e-09
-8.33703e-09
8.33659e-09
-6.11249e-13
-8.33292e-09
8.33318e-09
7.74703e-09
-7.74706e-09
7.53169e-12
8.28915e-09
-8.29674e-09
8.31523e-09
-4.84908e-12
-8.3107e-09
-8.32071e-09
-2.7354e-12
8.32342e-09
-8.33123e-09
8.3312e-09
-1.99775e-13
-8.3351e-09
8.32855e-09
-5.22e-12
-8.32342e-09
8.25403e-09
-8.25411e-09
-8.3327e-09
8.33254e-09
8.30274e-09
-8.30297e-09
-2.40855e-11
8.3525e-09
8.38073e-09
-8.37321e-09
-8.33449e-09
3.96843e-13
8.3351e-09
8.27344e-09
-8.26674e-09
-6.90723e-12
8.28124e-09
-8.12699e-09
-1.53784e-10
-8.33387e-09
8.33389e-09
8.33527e-09
-8.33523e-09
8.28133e-09
8.30506e-09
-2.40743e-11
-8.341e-09
-8.33441e-09
-7.37268e-14
8.3344e-09
-8.30501e-09
8.27393e-09
3.07659e-11
-8.3663e-09
-8.30144e-09
6.87263e-09
9.79359e-09
2.88786e-13
-8.33399e-09
-1.72875e-13
-8.33469e-09
8.33433e-09
8.33501e-09
-8.33391e-09
-1.90794e-13
-1.70209e-10
8.29722e-09
-8.12419e-09
2.61593e-13
8.33412e-09
8.30273e-09
-8.30266e-09
8.38072e-09
-8.33578e-09
1.09323e-11
8.32439e-09
-2.9495e-11
8.28385e-09
7.7352e-09
-7.73529e-09
-7.90458e-13
-8.33201e-09
-8.54295e-09
8.37309e-09
-9.02281e-09
4.82385e-10
-9.02146e-09
8.27307e-09
-8.26742e-09
-6.22724e-12
-5.50638e-12
-1.28712e-10
8.30324e-09
-8.17435e-09
-8.35886e-09
8.35874e-09
-1.19545e-11
-8.36131e-09
8.2962e-09
-8.27307e-09
-2.29944e-11
8.33453e-09
-8.33449e-09
-2.44367e-13
8.95092e-09
-8.94988e-09
8.34084e-09
-1.19741e-11
-8.3292e-09
8.33434e-09
-8.33463e-09
8.34071e-09
-1.10272e-11
-8.32512e-09
8.32968e-09
8.32512e-09
-8.33719e-09
8.36698e-09
-8.49568e-09
-1.44774e-11
8.3107e-09
-1.152e-10
-8.19157e-09
8.30741e-09
3.55506e-11
8.26701e-09
-8.33736e-09
8.33647e-09
-8.3137e-09
8.41525e-09
-1.01572e-10
8.52709e-09
-8.52694e-09
6.79198e-09
-6.79154e-09
-8.33824e-09
8.07125e-13
-8.37332e-09
8.3058e-09
-8.30583e-09
7.64053e-09
-7.64145e-09
-8.33487e-09
-4.86602e-10
8.72476e-09
-8.72931e-09
-8.32028e-09
-3.91396e-12
8.3243e-09
8.31988e-09
-8.31985e-09
8.16096e-09
-4.43163e-10
-7.71704e-09
8.27367e-09
8.86041e-09
-8.86065e-09
8.31126e-09
-8.18405e-09
-1.27904e-10
-8.49523e-09
8.36451e-09
1.31064e-10
-8.32041e-09
8.27303e-09
-8.27287e-09
-8.30489e-09
-8.33824e-09
-4.25946e-10
8.17383e-09
-8.28915e-09
-2.07644e-11
8.30988e-09
-8.1386e-09
8.29711e-09
-5.76541e-12
-8.31494e-09
-8.2962e-09
-1.46699e-11
8.31048e-09
-1.68208e-12
-8.32953e-09
-8.35356e-09
8.34772e-09
8.35835e-09
-8.3586e-09
8.30472e-09
8.35982e-09
-8.38435e-09
-8.47804e-09
8.36289e-09
-2.3146e-11
4.60038e-12
1.32788e-10
-8.27146e-09
-8.36637e-09
8.40199e-09
7.80932e-09
-7.8095e-09
8.32778e-09
-8.3247e-09
-3.23037e-12
-6.99745e-09
6.99753e-09
8.37327e-09
-8.39638e-09
3.82249e-10
-8.36885e-09
8.35539e-09
8.54251e-09
-9.02951e-09
-8.28102e-09
8.40773e-09
-1.26672e-10
8.24376e-09
3.70199e-11
8.33439e-09
-8.3525e-09
5.95621e-12
8.34637e-09
3.55374e-11
-8.30324e-09
3.53079e-11
8.36272e-09
-8.33433e-09
-2.85092e-14
8.33434e-09
-8.33991e-09
8.32779e-09
-8.35592e-09
-8.31126e-09
9.28281e-09
7.38383e-09
8.32065e-09
-8.33737e-09
1.63732e-11
-8.35615e-09
-8.88584e-09
8.88613e-09
8.3437e-09
-8.34772e-09
-8.3663e-09
-8.27939e-09
8.27918e-09
7.40642e-11
8.24554e-09
8.34028e-09
-8.33432e-09
-5.38756e-13
8.33464e-09
8.3344e-09
-8.3343e-09
6.42013e-12
-3.5876e-12
-8.41527e-09
8.38569e-09
-8.11112e-09
8.11074e-09
-8.27474e-09
-5.48209e-12
-8.34726e-09
8.34727e-09
-8.36698e-09
8.40241e-09
8.33494e-09
3.2499e-11
-8.30741e-09
-8.39629e-09
2.0883e-11
-8.38923e-09
-1.04862e-11
-2.42974e-13
-8.33501e-09
-1.28537e-10
-8.17391e-09
-8.36094e-09
8.36011e-09
-8.3488e-09
8.34888e-09
8.29734e-09
-2.33573e-11
8.35995e-09
8.33438e-09
8.35392e-09
8.30144e-09
-1.4126e-10
-4.35693e-10
8.1713e-09
-8.36654e-09
7.14453e-09
-7.14422e-09
8.49547e-09
-8.93128e-09
-8.33401e-09
8.39623e-09
8.33455e-09
-4.06185e-15
-8.41535e-09
-8.92127e-09
-3.9637e-11
8.33737e-09
-8.31048e-09
-8.33568e-09
8.335e-09
8.35948e-09
8.34163e-09
-8.34167e-09
8.36394e-09
-4.04769e-12
-4.64461e-11
8.32023e-09
2.45521e-11
-8.39529e-09
-8.4259e-09
8.33447e-09
-8.33394e-09
-8.50776e-09
-8.38964e-09
8.33055e-09
8.35515e-09
-2.70777e-13
-8.33432e-09
-7.64073e-09
-8.39462e-09
8.39463e-09
8.33423e-09
-8.36451e-09
-1.49279e-11
8.40152e-09
-8.36636e-09
8.39512e-09
8.33632e-09
-8.36394e-09
8.349e-09
8.33394e-09
3.74653e-13
8.33394e-09
-8.36636e-09
-6.99709e-09
6.99711e-09
5.8567e-12
1.48549e-10
-8.30869e-09
8.33435e-09
8.34846e-09
-8.17401e-09
-1.28886e-10
8.33432e-09
8.30809e-09
8.39632e-09
-8.34846e-09
8.3449e-09
-8.38884e-09
-4.26231e-10
-7.74734e-09
-8.38872e-09
1.74211e-12
-8.4948e-09
8.34622e-09
-8.34626e-09
-3.93697e-10
-7.79024e-09
-8.33333e-09
8.3394e-09
-6.24306e-12
8.34006e-09
8.33316e-09
2.91394e-13
-8.33352e-09
-8.33458e-09
-8.33458e-09
-8.33354e-09
-2.1137e-13
-8.33335e-09
-8.33479e-09
8.335e-09
-7.62846e-09
7.62845e-09
7.63875e-09
-7.63876e-09
7.06537e-10
9.04153e-09
8.36131e-09
-7.22542e-10
-4.57976e-09
8.54074e-09
-4.68848e-09
7.27114e-10
8.32275e-09
4.82724e-09
-3.84015e-09
-9.87033e-10
-1.7683e-09
-1.94887e-09
7.56236e-09
-3.8368e-09
-6.08833e-10
-3.97094e-09
8.80675e-09
-8.80708e-09
9.85303e-09
-1.0464e-09
-2.85336e-09
-3.98225e-10
3.25136e-09
-3.46222e-09
6.81342e-09
-6.81182e-09
-1.30444e-09
-2.00945e-10
1.50528e-09
5.52814e-10
-1.8575e-09
7.71704e-09
8.37966e-09
-8.37976e-09
9.26918e-09
-8.89104e-10
6.87257e-09
4.30195e-09
-8.41865e-09
3.67919e-09
4.3765e-10
7.46243e-10
3.55575e-09
-9.75477e-09
9.67123e-09
8.81808e-11
-1.39779e-09
-2.36595e-10
1.63446e-09
6.62098e-10
-2.05974e-09
-9.75529e-09
-1.01284e-08
9.82273e-09
3.0295e-10
-1.30109e-09
-1.8115e-10
1.48248e-09
4.14231e-10
-1.71453e-09
-1.01282e-08
-1.01751e-08
9.86077e-09
3.1609e-10
-1.28773e-09
-1.31732e-10
1.41941e-09
2.99475e-10
-1.58771e-09
-1.01753e-08
-1.02104e-08
9.8789e-09
3.29891e-10
-1.26582e-09
-1.48291e-10
1.4141e-09
3.00702e-10
-1.56629e-09
-1.02105e-08
1.01993e-08
-1.02006e-08
1.02646e-08
-6.66355e-11
-1.26382e-09
-1.40947e-10
1.40479e-09
2.84817e-10
-1.54887e-09
6.39645e-09
-6.39402e-09
-1.27153e-09
-1.55392e-10
1.42668e-09
2.79814e-10
-1.55209e-09
7.64073e-09
8.37295e-09
3.15601e-09
3.518e-10
-3.50831e-09
3.70117e-09
-5.45361e-10
3.83362e-09
-4.8651e-09
1.03089e-09
5.03796e-11
8.24615e-09
4.18539e-09
-8.39418e-09
3.72232e-09
-7.09587e-09
4.05796e-09
-6.84998e-10
4.20974e-10
-4.0123e-09
6.97815e-09
9.68564e-09
8.5399e-09
-8.53991e-09
9.68837e-09
-1.14635e-09
6.97806e-09
-8.93146e-09
6.97838e-09
-6.9785e-09
-1.37591e-09
-2.13953e-10
1.59035e-09
-1.95622e-09
5.80938e-10
3.87622e-10
4.09935e-09
-4.48707e-09
4.55123e-09
-4.6893e-09
1.3807e-10
8.4213e-09
2.7589e-10
4.27538e-09
1.77384e-10
1.50719e-09
4.10603e-09
-5.79153e-09
-3.98386e-09
4.07325e-09
-8.94401e-11
-3.70811e-09
4.16293e-09
-5.20389e-09
1.04129e-09
-1.64348e-10
-3.98655e-09
-9.44676e-10
5.01796e-09
8.41525e-09
8.35276e-09
-4.37207e-09
-4.14496e-09
8.25113e-09
8.25114e-09
-8.60544e-11
8.32417e-09
-8.40502e-09
9.66133e-09
-1.25298e-09
-8.40549e-09
-6.94101e-09
6.94051e-09
-1.39749e-09
-2.43038e-10
1.6411e-09
6.30241e-10
-2.02706e-09
-7.00672e-09
7.78343e-09
-7.00648e-09
-7.78343e-09
-2.77372e-10
8.06119e-09
1.32103e-09
9.98673e-11
-1.42082e-09
-2.69913e-10
1.59145e-09
-5.24459e-09
4.0449e-09
9.32122e-10
1.37341e-09
-1.94335e-09
5.69546e-10
1.47304e-09
4.82854e-09
-3.45813e-10
-4.48274e-09
8.70714e-09
-4.23506e-09
3.5667e-10
8.55554e-09
1.50916e-10
-3.35027e-09
-2.30032e-10
3.58003e-09
2.89983e-10
-3.64053e-09
-8.55554e-09
5.32399e-11
8.50127e-09
2.75361e-09
7.19614e-10
-3.47395e-09
3.25664e-09
-5.02891e-10
3.84172e-09
7.82715e-10
-4.62517e-09
-8.11291e-09
8.16558e-09
4.56141e-09
-8.80379e-09
9.8766e-09
-1.06793e-09
-8.80464e-09
-8.89621e-09
6.57319e-09
-7.77204e-09
1.00938e-08
-8.89626e-09
7.77204e-09
-1.29804e-09
1.47348e-09
-1.74481e-10
-1.83316e-09
5.35828e-10
-1.81626e-09
-3.50089e-09
-7.95579e-09
9.51012e-09
-1.55117e-09
-7.9563e-09
6.57308e-09
-1.47513e-09
-3.75945e-10
1.85148e-09
-2.21004e-09
7.35535e-10
-7.15977e-09
-7.15959e-09
8.31708e-09
-8.3131e-09
-4.61036e-12
-8.34133e-09
6.95017e-09
-8.32574e-09
9.71634e-09
-9.0443e-12
8.32574e-09
-8.34144e-09
-8.35054e-09
-8.4324e-09
9.67202e-09
-1.23726e-09
-8.43301e-09
6.95005e-09
-8.92142e-09
6.99645e-09
-6.99651e-09
-1.39394e-09
-2.38052e-10
1.6325e-09
-2.01322e-09
6.19732e-10
-8.32023e-09
4.67114e-11
8.27387e-09
1.32303e-09
2.09894e-11
-1.34401e-09
-8.82804e-11
1.41136e-09
-4.91224e-09
4.04155e-09
7.82985e-10
1.47512e-09
-2.1394e-09
6.64009e-10
1.49597e-09
4.80341e-09
-3.06335e-10
-4.49715e-09
8.71798e-09
-4.21152e-09
2.96994e-10
1.61814e-10
8.55545e-09
-3.41654e-09
-1.78558e-10
3.59498e-09
3.05718e-10
-7.94929e-09
-7.97787e-09
9.52342e-09
-1.54321e-09
-6.62125e-09
6.62097e-09
-8.55545e-09
1.00446e-08
-7.97817e-09
-8.87783e-09
8.48405e-09
-8.87772e-09
7.79024e-09
-1.47336e-09
-3.25588e-10
1.79919e-09
7.8487e-10
-2.25781e-09
8.90699e-09
3.7436e-10
1.52853e-09
2.61095e-10
-1.78942e-09
-4.6985e-10
1.99838e-09
7.384e-09
7.93901e-09
-7.9436e-09
8.63717e-09
-8.64198e-09
8.90875e-09
8.05585e-09
-8.04823e-09
-6.59872e-09
6.59586e-09
9.14628e-09
-1.07512e-09
9.65799e-09
-9.66269e-09
1.00264e-08
-3.72801e-10
-1.50029e-09
-2.6713e-10
8.0886e-10
-2.30345e-09
6.64553e-09
-6.64793e-09
-1.34148e-09
-1.94161e-10
1.53488e-09
-1.74132e-09
3.97817e-10
-9.03048e-09
6.94665e-09
-8.30809e-09
9.72047e-09
8.42361e-09
-8.42383e-09
9.66983e-09
-1.24405e-09
6.9465e-09
-8.92026e-09
4.25731e-10
6.99837e-09
-6.9982e-09
-1.39498e-09
-2.39947e-10
1.63536e-09
-2.01783e-09
6.23363e-10
-8.92027e-09
-7.74805e-09
6.9498e-09
-8.33055e-09
9.71696e-09
8.4311e-09
-8.4309e-09
9.67159e-09
-1.23897e-09
6.94973e-09
8.49525e-09
-8.92136e-09
-7.74745e-09
-1.39418e-09
1.63306e-09
-2.38361e-10
-2.01509e-09
6.21353e-10
-1.90457e-09
-3.45884e-09
8.92136e-09
4.72783e-09
-9.55204e-11
3.68821e-09
8.33159e-09
-8.37128e-09
8.33144e-09
8.87697e-10
-2.87639e-10
4.1405e-09
-3.85285e-09
3.41233e-09
-8.34781e-09
4.83989e-09
3.84282e-09
6.42553e-10
-4.48532e-09
4.58908e-09
-3.12469e-09
3.68833e-09
-5.63626e-10
3.47712e-09
7.25079e-10
-4.20216e-09
4.11968e-09
-3.2093e-10
-4.08625e-09
-3.87379e-09
7.16191e-11
-8.40773e-09
8.33629e-09
8.26121e-09
-8.26115e-09
8.38783e-09
2.74982e-12
-8.33615e-09
8.33283e-09
-8.33306e-09
8.33305e-09
-1.44933e-13
-4.18908e-09
8.24983e-09
8.3394e-09
8.33578e-09
-3.69244e-09
4.07999e-09
8.33537e-09
-8.75428e-13
-8.33451e-09
8.33533e-09
8.33345e-09
-8.33435e-09
9.20468e-13
8.33433e-09
-8.33345e-09
-8.33372e-09
-5.22346e-13
-8.33379e-09
-8.33464e-09
-2.9044e-12
8.33694e-09
1.38257e-13
8.33417e-09
-8.33448e-09
-8.33076e-09
6.95005e-09
-8.33694e-09
9.71704e-09
8.33076e-09
-8.33388e-09
-8.33417e-09
8.4316e-09
-8.43131e-09
6.94997e-09
9.67185e-09
-1.23858e-09
-7.74791e-09
7.74792e-09
-1.39389e-09
1.63262e-09
-2.38241e-10
-2.0151e-09
6.21693e-10
-1.90405e-09
-3.4601e-09
8.92171e-09
8.92193e-09
4.26429e-10
8.33501e-09
1.87173e-13
-8.30868e-09
-1.7057e-09
1.88313e-09
-2.67431e-10
-3.22965e-09
-9.19362e-10
4.14879e-09
-4.8743e-10
-4.55532e-10
-3.54082e-10
-3.49038e-10
-3.23793e-10
2.35331e-11
-8.63292e-10
-3.08791e-09
3.95095e-09
-3.78201e-09
-1.56241e-09
-1.94232e-09
-4.23742e-09
-9.66434e-10
9.72317e-09
-1.46559e-09
-8.99396e-09
-5.04421e-10
9.4966e-09
-8.99331e-09
8.11291e-09
-7.96205e-09
-1.00822e-09
4.24046e-09
-3.23233e-09
-3.82334e-09
4.60599e-09
-3.59468e-10
-8.44684e-09
-1.38411e-09
-1.48382e-09
-9.057e-09
-5.16487e-10
9.57223e-09
-9.05686e-09
-1.35776e-09
1.44665e-09
-1.73933e-09
2.94464e-10
1.70813e-09
1.00656e-08
-8.03535e-09
-1.44768e-09
-5.26208e-10
-1.47872e-09
7.74805e-09
-1.48184e-09
3.36117e-09
3.18044e-10
8.33615e-09
8.32945e-09
-1.48201e-09
-9.03122e-09
1.34983e-09
-1.55094e-09
1.85808e-09
-5.08579e-10
1.52546e-09
-1.70672e-09
1.52264e-09
-1.65419e-09
-1.07997e-10
1.63311e-09
1.50865e-09
-1.65714e-09
1.57758e-11
1.50722e-09
1.49618e-09
-1.63702e-09
-1.26291e-11
1.52086e-09
-1.24461e-11
1.50882e-09
1.49631e-09
-1.65199e-09
1.5467e-09
-5.11988e-11
1.6536e-09
-1.86762e-09
1.8553e-09
-2.01641e-10
1.70128e-09
-1.94436e-09
1.91417e-09
-2.12814e-10
3.56907e-09
-3.79908e-09
-6.65997e-10
1.32034e-09
-1.495e-09
-4.96476e-10
1.99609e-09
-2.37216e-09
2.19794e-09
-2.01926e-10
1.69407e-09
-1.93219e-09
1.90429e-09
-2.10255e-10
3.58437e-09
-3.76296e-09
-6.2714e-10
1.86838e-09
-2.19405e-09
-2.16398e-10
2.0847e-09
2.71436e-10
1.82987e-09
-2.09624e-09
1.58715e-09
-1.78235e-09
-1.1754e-10
1.68907e-09
-1.05779e-10
1.69714e-09
-1.93731e-09
1.90782e-09
-2.10896e-10
1.69461e-09
-1.93306e-09
-2.1017e-10
3.1246e-09
1.69387e-09
-1.93221e-09
-2.10389e-10
8.01241e-10
-4.77219e-09
-3.88726e-09
3.44846e-09
-3.9421e-09
-3.38005e-09
3.88262e-09
-3.31721e-09
3.91939e-09
-3.2551e-09
3.87196e-09
-3.25997e-09
3.87463e-09
3.42063e-09
-3.20803e-09
4.88911e-09
-8.2179e-09
8.42301e-09
5.86156e-09
3.53285e-09
-4.09751e-09
3.45121e-09
-4.07309e-09
-8.60876e-09
-3.73534e-09
4.02535e-09
-4.08129e-09
6.57659e-11
4.03431e-09
-4.03316e-09
5.51124e-09
3.11017e-09
-3.9252e-09
5.77057e-09
3.45971e-09
-4.0765e-09
-8.39559e-09
-3.75162e-09
4.05732e-09
-4.01839e-09
3.26033e-09
5.59255e-09
-3.85525e-09
3.7609e-09
-4.10261e-09
3.42397e-09
-3.40232e-09
5.76475e-09
3.45502e-09
-4.07513e-09
5.76853e-09
-4.07652e-09
8.32946e-09
-3.62792e-09
-5.31667e-09
5.76944e-09
-4.07705e-09
-4.71861e-09
-3.97544e-09
-3.75651e-09
-3.62236e-09
-3.62115e-09
-3.58383e-09
-4.66131e-09
3.79754e-09
3.87908e-09
5.75149e-09
4.10919e-09
5.14873e-09
5.48497e-10
-4.83184e-09
3.73523e-09
7.20794e-10
5.12429e-09
5.66783e-09
-4.3268e-09
-4.88385e-12
8.72947e-10
-4.96e-11
3.63327e-09
4.95298e-09
-7.17368e-09
-4.80667e-09
8.82254e-11
8.12705e-09
7.39669e-09
6.99841e-09
6.84579e-09
6.80705e-09
6.7879e-09
-5.07831e-10
4.82834e-09
)
;

boundaryField
{
    inlet
    {
        type            calculated;
        value           uniform -8.335e-09;
    }
    Walls
    {
        type            calculated;
        value           uniform 0;
    }
    outlet
    {
        type            calculated;
        value           nonuniform List<scalar> 2(8.33348e-09 8.33487e-09);
    }
}


// ************************************************************************* //
