/*--------------------------------*- C++ -*----------------------------------*\
  =========                 |
  \\      /  F ield         | OpenFOAM: The Open Source CFD Toolbox
   \\    /   O peration     | Website:  https://openfoam.org
    \\  /    A nd           | Version:  13
     \\/     M anipulation  |
\*---------------------------------------------------------------------------*/
FoamFile
{
    format      ascii;
    class       volVectorField;
    location    "64";
    object      U;
}
// * * * * * * * * * * * * * * * * * * * * * * * * * * * * * * * * * * * * * //

dimensions      [0 1 -1 0 0 0 0];

internalField   nonuniform List<vector> 
755
(
(1.7333 -0.251504 0.296798)
(1.23459 -0.221491 0.178481)
(1.73362 -0.251539 0.29738)
(1.60784 -0.254689 0.190437)
(1.23127 -0.178792 0.22138)
(1.7335 -0.251486 0.297104)
(1.28705 -0.220382 0.174357)
(1.72885 -0.248733 0.298424)
(1.13623 -0.180994 0.196177)
(1.73296 -0.251651 0.297634)
(1.35902 0.00148349 0.142655)
(1.67817 -0.248084 0.221459)
(1.49051 -0.216901 0.28985)
(1.72783 -0.251465 0.289605)
(1.23394 -0.178599 0.221625)
(1.49421 -0.216795 0.290272)
(1.49945 -0.219147 0.292232)
(1.22195 -0.169882 0.227253)
(1.23438 -0.178552 0.221739)
(1.22959 -0.153244 0.183904)
(1.72267 -0.24651 0.294)
(1.70092 -0.240933 0.255834)
(1.73367 -0.251465 0.29716)
(1.71979 -0.239883 0.297508)
(1.66304 -0.139209 0.135727)
(1.2344 -0.178421 0.221595)
(1.49418 -0.290297 0.216765)
(1.21243 -0.144346 0.160044)
(1.67175 -0.243788 0.221637)
(1.72419 -0.296328 0.243666)
(1.49398 -0.216696 0.290272)
(1.23482 -0.178526 0.221638)
(1.50471 -0.192171 0.298928)
(1.69584 -0.155059 0.176512)
(1.49397 -0.21652 0.2903)
(1.73346 -0.251586 0.297038)
(1.73359 -0.297367 0.251533)
(1.73327 -0.251591 0.296872)
(1.64886 -0.124845 0.117811)
(1.4939 -0.216392 0.290398)
(1.49398 -0.290274 0.216521)
(1.22964 -0.153162 0.183792)
(1.20318 -0.204754 0.161798)
(1.7574 -0.318847 0.239663)
(1.4701 -0.210758 0.287273)
(1.35912 0.00262208 0.142931)
(1.73307 -0.251545 0.297203)
(1.75367 -0.193 0.110447)
(1.66856 -0.214446 -0.0184884)
(1.44244 0.0271202 0.0101417)
(1.71965 -0.239605 0.297507)
(1.72949 -0.251955 0.296117)
(1.69319 -0.156981 0.19715)
(1.24337 -0.223046 0.17752)
(1.59459 -0.23786 0.241716)
(1.4836 -0.212494 0.290779)
(1.48391 -0.216629 0.288043)
(1.36631 -0.0223829 0.031343)
(1.7246 -0.282317 0.359645)
(1.73345 -0.29706 0.251574)
(1.20405 -0.166173 0.25656)
(1.45811 -0.300717 0.199731)
(1.45587 -0.203728 0.302292)
(1.72358 -0.347304 0.275735)
(1.77603 -0.260128 0.146885)
(1.72842 -0.249015 0.298609)
(1.6983 -0.157997 0.203832)
(1.50251 -0.191817 0.298298)
(1.73401 -0.297215 0.251406)
(1.59838 -0.074062 0.106345)
(1.43355 -0.120945 0.187149)
(1.03637 0.0950879 -0.0660958)
(1.49469 -0.290253 0.216502)
(1.74291 -0.301284 0.246879)
(1.24306 -0.177416 0.229625)
(1.44447 0.0181341 0.112723)
(1.23495 -0.221667 0.1786)
(1.56405 -0.0856716 0.0755657)
(1.26275 -0.0439942 0.0397607)
(1.48129 -0.216765 0.288455)
(1.26241 -0.152615 0.171188)
(1.52749 -0.0951352 0.123502)
(1.22025 -0.172224 0.223136)
(1.33634 -0.0421922 0.0348437)
(1.71006 -0.153569 0.208168)
(1.77598 -0.2601 0.146704)
(1.23308 -0.178623 0.221679)
(1.22161 -0.17239 0.2232)
(1.22927 -0.153457 0.183877)
(1.23554 -0.221608 0.178378)
(1.52933 -0.0987973 0.145769)
(1.47619 -0.194061 0.311075)
(1.43805 -0.189538 0.126859)
(1.18543 -0.154986 0.196042)
(1.26761 -0.142575 0.150893)
(1.72908 -0.251817 0.295848)
(1.72837 -0.249028 0.298659)
(1.7326 -0.25169 0.296968)
(1.7356 -0.295564 0.250759)
(1.24325 -0.223067 0.177483)
(1.22152 -0.172369 0.223249)
(1.07322 -0.160566 0.171544)
(1.69641 -0.24445 0.245599)
(1.7724 -0.26025 0.148932)
(1.48363 -0.212605 0.290773)
(1.49969 -0.288498 0.216426)
(1.86036 0.0795647 0.151564)
(1.53302 -0.269209 0.205419)
(1.35375 -0.00301447 0.140339)
(1.73196 -0.251731 0.297538)
(1.05184 0.0640408 -0.0596707)
(1.50178 -0.295465 0.207222)
(1.59189 -0.274212 0.0242739)
(1.74177 -0.300852 0.246765)
(1.65164 -0.228749 -0.0081456)
(1.75522 -0.027092 0.176376)
(1.5011 -0.182952 0.306717)
(1.53073 -0.0969194 0.156565)
(1.23456 -0.221665 0.17843)
(1.17376 -0.180263 0.279093)
(1.74287 -0.301355 0.246898)
(1.50253 -0.191965 0.298407)
(1.50229 -0.191841 0.298287)
(1.28841 -0.202692 0.155323)
(1.49419 -0.216547 0.290322)
(1.7344 -0.296992 0.25139)
(1.23333 -0.178639 0.221865)
(1.79043 -0.156918 0.177783)
(1.49344 -0.216651 0.290311)
(1.17168 -0.181196 0.280993)
(1.16361 -0.155002 0.174179)
(1.37844 -0.0446406 0.0194911)
(1.48603 -0.288436 0.216041)
(1.29153 -0.202032 0.154725)
(1.22243 -0.172254 0.222986)
(1.27825 -0.163647 0.318698)
(1.75603 -0.242377 0.319679)
(1.7342 -0.25155 0.298927)
(1.23483 -0.221631 0.178517)
(1.74749 -0.307458 0.245175)
(1.49159 -0.216877 0.290636)
(1.4945 -0.292639 0.204244)
(1.26266 -0.0271801 0.214653)
(1.72057 -0.239859 0.296793)
(1.32413 -0.192003 0.150329)
(1.53307 -0.269255 0.205537)
(1.23488 -0.178468 0.221755)
(1.50376 -0.193147 0.296795)
(1.2404 -0.21933 0.168576)
(1.50094 -0.295273 0.207429)
(1.71923 -0.234667 0.305326)
(1.49413 -0.29013 0.216655)
(1.69314 -0.156837 0.196963)
(1.14617 -0.181312 0.195206)
(1.27646 -0.227762 0.157338)
(1.49032 -0.21483 0.291837)
(1.48687 -0.311273 0.199145)
(1.49397 -0.29027 0.216675)
(1.49952 -0.288503 0.21636)
(1.29156 -0.202185 0.154803)
(1.69798 -0.145856 0.189018)
(1.53366 -0.100825 0.14432)
(1.18871 -0.153178 0.169669)
(1.10429 0.0489771 -0.059884)
(1.60306 -0.277814 0.0184663)
(1.73329 -0.296743 0.251448)
(1.73792 -0.285819 0.236823)
(1.73347 -0.297403 0.251463)
(1.24772 -0.222791 0.164952)
(1.11702 -0.170916 0.134746)
(1.59786 -0.27681 0.0181654)
(1.71848 -0.244105 0.294271)
(1.48473 -0.212245 0.291041)
(1.4907 -0.216937 0.289877)
(1.73345 -0.297657 0.251562)
(1.09386 -0.182019 0.163297)
(1.23647 -0.221857 0.178227)
(1.75225 -0.320351 0.243145)
(1.63025 -0.237414 0.23548)
(1.71995 -0.243602 0.293742)
(1.75693 -0.310334 0.23898)
(1.73014 -0.285797 0.232793)
(1.74493 -0.291906 0.230965)
(1.23088 -0.17877 0.222422)
(1.20477 -0.250486 0.160604)
(1.49389 -0.290388 0.216428)
(1.78524 -0.255678 0.135064)
(1.23918 -0.219522 0.168821)
(1.74429 -0.246149 0.30712)
(1.24466 -0.223206 0.177436)
(1.49415 -0.216639 0.290144)
(1.49408 -0.216652 0.290018)
(1.22958 -0.153239 0.183943)
(1.58019 -0.0748459 0.0618767)
(1.23891 -0.219247 0.168199)
(1.23485 -0.221736 0.17845)
(1.53624 -0.269647 0.206041)
(1.4936 -0.2169 0.282706)
(1.23099 -0.178804 0.222425)
(1.53279 -0.269182 0.205426)
(1.53097 -0.270545 0.205373)
(1.23486 -0.221774 0.17846)
(1.23521 -0.221724 0.17844)
(1.49994 -0.285412 0.216656)
(1.49408 -0.290029 0.216628)
(1.25031 -0.231035 0.178524)
(1.73798 -0.285936 0.236996)
(1.4946 -0.290055 0.216599)
(1.73327 -0.296895 0.251583)
(1.73364 -0.297131 0.251463)
(1.29149 -0.202171 0.154786)
(1.23894 -0.221463 0.177766)
(1.23456 -0.178422 0.221656)
(1.05182 0.0640285 -0.0597119)
(1.74436 -0.241023 0.319179)
(1.49395 -0.21668 0.290084)
(1.7335 -0.297075 0.251479)
(1.233 -0.153929 0.186363)
(1.73788 -0.285752 0.236727)
(1.23441 -0.221618 0.178431)
(1.76877 -0.260306 0.140655)
(1.68545 -0.153067 0.194666)
(1.57949 -0.245486 0.203737)
(1.49419 -0.290331 0.21655)
(1.73604 -0.295802 0.250924)
(1.69314 -0.156945 0.19711)
(1.73346 -0.251441 0.297406)
(1.73851 -0.242625 0.306745)
(1.24035 -0.219398 0.168521)
(1.49632 -0.290597 0.216167)
(1.54236 -0.272668 0.198338)
(1.23495 -0.178594 0.221661)
(1.28922 -0.178824 0.219064)
(1.52928 -0.0989408 0.145964)
(1.10055 -0.175449 0.139231)
(1.29191 -0.181306 0.145691)
(1.49532 -0.290061 0.216411)
(1.4929 -0.216724 0.290194)
(1.7676 -0.209741 0.127132)
(1.23486 -0.178439 0.221741)
(1.77585 -0.259829 0.146764)
(1.71958 -0.239448 0.297406)
(1.23401 -0.21923 0.178463)
(1.52042 -0.100898 0.146362)
(1.50259 -0.292363 0.219303)
(1.50177 -0.295461 0.207141)
(1.29075 -0.201967 0.154538)
(1.74633 -0.245028 0.317082)
(1.23717 -0.221177 0.177951)
(1.73683 -0.286297 0.237393)
(1.73553 -0.297678 0.251194)
(1.6024 -0.260578 0.0118703)
(1.69314 -0.157088 0.196895)
(1.14434 -0.204907 0.180362)
(1.73295 -0.291331 0.251695)
(1.2297 -0.178383 0.218405)
(1.2346 -0.178513 0.221528)
(1.23629 -0.1787 0.217986)
(1.76331 0.0172575 -0.226624)
(1.76358 0.226643 -0.017221)
(1.45509 0.174809 0.0762742)
(1.4549 -0.0762915 -0.174835)
(1.87751 -0.166244 0.0837916)
(1.87775 -0.0838063 0.166211)
(1.16067 -0.0698848 0.0811737)
(0.956833 0.197792 0.157864)
(1.08437 -0.0376776 0.0587684)
(1.4131 0.0823591 0.0106738)
(1.17352 -0.0392235 0.17249)
(1.78042 -0.119256 0.161802)
(1.36554 -0.119682 0.21978)
(1.78333 0.352541 -0.216527)
(1.18267 -0.275237 0.183668)
(1.20466 0.02835 -0.0277774)
(1.50719 0.0306384 -0.00858715)
(1.20629 0.0811861 -0.0802809)
(1.4509 0.32769 0.151845)
(1.68442 0.137524 0.362008)
(1.08505 -0.0770176 0.0556598)
(1.3674 -0.0888289 0.14384)
(1.05737 0.0877537 -0.0658776)
(0.572802 0.00906326 -0.024749)
(0.925209 -0.0121402 0.0642388)
(2.17496 0.147579 0.176419)
(1.32395 0.210617 0.189358)
(1.73692 0.147992 0.316791)
(0.911908 0.0434438 -0.0322045)
(2.11272 0.238357 0.0662279)
(1.49764 0.100452 0.0494987)
(1.76559 0.251409 0.321887)
(0.628155 0.0190088 0.00577004)
(1.06988 -0.014968 0.0519366)
(1.41048 0.268812 0.216565)
(1.81313 0.259545 0.304611)
(0.526873 -0.0171658 -0.0336531)
(0.827799 -0.0547985 -0.0182627)
(1.49426 0.293603 0.224785)
(1.81878 0.256185 0.301049)
(0.505207 -0.00951626 -0.0323281)
(0.817095 -0.0381178 -0.0307516)
(1.50632 0.293653 0.21774)
(1.82618 0.256231 0.2987)
(0.494369 -0.011073 -0.0302619)
(0.791876 -0.0423698 -0.0373353)
(1.51543 0.292081 0.216591)
(1.53784 0.305839 0.209774)
(1.7598 0.240983 0.341399)
(0.49277 -0.0096305 -0.0309027)
(0.792345 -0.0405113 -0.0358502)
(1.01605 0.0585297 -0.109771)
(0.493081 -0.00838141 -0.0311684)
(0.77423 -0.0393026 -0.0410063)
(2.28913 0.217273 0.146393)
(1.34635 -0.174084 0.13996)
(1.40205 -0.0930928 0.0786378)
(1.10138 -0.0532254 0.0552499)
(1.39912 -0.117736 -0.0301828)
(1.18149 -0.147019 0.295037)
(1.20284 0.101518 -0.103789)
(1.84027 -0.091606 -0.0537603)
(1.7427 0.108603 0.206565)
(1.56729 0.373082 0.191203)
(1.64724 -0.199636 0.205346)
(1.38249 0.220282 0.194135)
(1.70157 0.140667 0.350334)
(0.902866 0.0208905 -0.020536)
(1.33992 -0.0320394 0.0336688)
(1.04363 0.0670149 -0.0590687)
(0.615072 0.0264208 0.00740379)
(1.05605 -0.00138332 0.0544548)
(1.26574 -0.102087 -0.0955253)
(1.31197 -0.0875854 0.114317)
(1.30947 -0.28592 0.183967)
(1.51777 0.0987088 0.522337)
(2.24073 -0.0711473 0.0463684)
(1.45178 0.560269 0.0602721)
(1.29196 0.167725 0.160287)
(1.5002 0.178363 -0.019329)
(1.76998 0.11976 0.0939798)
(1.78825 -0.140239 -0.00521119)
(1.21874 -0.21649 0.165963)
(1.78061 -0.118434 -0.171168)
(1.61573 -0.109407 0.0484768)
(1.23296 -0.158462 0.204591)
(1.53241 -0.333722 0.274602)
(1.14556 -0.179404 0.202472)
(1.68984 0.126417 0.357123)
(1.36666 0.223644 0.190989)
(0.903293 0.0441152 -0.0467767)
(0.623744 0.0243933 0.00911804)
(1.05758 -0.00662473 0.0473419)
(2.13608 0.129475 0.175412)
(1.05617 0.0633414 -0.0591385)
(1.46099 -0.116219 0.148294)
(0.854676 -0.0623355 -0.0333038)
(0.650966 0.0154301 0.0373767)
(2.04271 -0.144399 0.0947802)
(0.964976 -0.091843 -0.0476792)
(0.580076 0.0635653 0.00343906)
(1.23359 0.0534435 0.0425742)
(1.81445 0.332959 0.212757)
(1.91532 0.0670973 0.194639)
(1.02945 -0.0761523 -0.0126543)
(1.17097 -0.0656469 0.0423414)
(1.33828 -0.219009 0.181135)
(1.54261 -0.192285 0.150803)
(1.26472 -0.132943 0.14792)
(1.03341 -0.111379 0.0689834)
(1.29947 -0.0401509 -0.0849982)
(1.29043 -0.185548 0.207811)
(1.12295 0.0652176 -0.108096)
(1.69484 0.133913 0.357174)
(1.47566 0.325205 0.153204)
(1.79998 -0.139126 0.00539568)
(1.27083 -0.0197814 0.0588049)
(2.17925 0.135193 0.174318)
(0.573661 0.0145386 -0.0240238)
(0.945453 -0.00168485 0.0767507)
(1.65691 0.0540807 0.0393158)
(1.64097 0.0829768 0.348203)
(1.27289 0.184696 0.16106)
(0.93471 -0.0189608 -0.0701347)
(0.65556 0.0209092 0.0363342)
(1.08501 -0.0323106 -0.00726001)
(2.13165 0.109403 0.168308)
(1.09438 0.0392918 -0.0438362)
(1.48084 -0.216895 0.287519)
(1.66285 -0.184024 0.18511)
(1.74212 -0.246479 0.305583)
(1.13667 -0.180591 0.195803)
(1.74747 -0.305531 0.244985)
(1.69139 0.128267 0.355348)
(1.37102 0.222808 0.191765)
(0.903155 0.0392622 -0.0427231)
(1.34023 -0.0339338 0.0341666)
(1.05178 0.0641986 -0.0597037)
(0.62239 0.0249636 0.00909489)
(1.05771 -0.00549128 0.0483126)
(1.43903 -0.236983 0.291079)
(0.854176 -0.0486379 -0.0144704)
(0.620486 0.00581874 0.0169656)
(1.99165 -0.220412 0.147372)
(0.971683 -0.105664 -0.0318686)
(0.599024 0.0942644 0.00415151)
(1.23673 0.0523115 0.04114)
(1.80351 0.325521 0.204554)
(1.94236 0.0765899 0.213284)
(1.03346 -0.0792321 -0.0268531)
(1.16401 -0.0597519 0.042402)
(1.83186 -0.131248 -0.0832852)
(1.61991 0.101182 0.35961)
(0.927734 0.0778004 -0.0755433)
(1.8063 -0.0899911 0.0947165)
(1.26161 0.223576 0.167937)
(1.5856 -0.26757 0.0262878)
(1.34801 -0.0391005 0.0387248)
(2.14259 0.114465 0.172626)
(0.655052 0.0136422 0.0108808)
(1.07262 -0.0360929 0.0245822)
(1.78576 -0.267357 0.143213)
(1.92959 -0.209115 0.0554818)
(0.862514 0.0255331 -0.0518674)
(0.718454 0.00732757 -0.0601106)
(0.896094 0.019696 -0.00697345)
(1.2494 -0.0659694 0.0154051)
(1.42759 -0.131974 -0.237424)
(1.41368 -0.223138 -0.148261)
(1.21698 0.208035 0.166647)
(0.945627 0.0560782 0.0104239)
(1.67413 0.141143 0.309804)
(1.43721 0.279587 0.217463)
(1.70137 0.225817 0.3645)
(0.667797 0.00495348 -0.00874912)
(1.09355 -0.0397465 0.0439401)
(1.06063 0.0540997 -0.0993944)
(0.53905 -0.00749799 -0.0268482)
(0.849686 -0.0438085 -0.0250014)
(1.42451 0.0150792 0.0220644)
(1.66435 -0.182478 0.183129)
(1.36963 0.22282 0.191403)
(1.69025 0.127531 0.355469)
(0.903337 0.0401471 -0.0439128)
(1.59783 -0.276721 0.0182437)
(1.05258 0.0639076 -0.0596404)
(0.622796 0.024868 0.00925829)
(1.0578 -0.00585718 0.0479114)
(1.34031 -0.0340395 0.0341985)
(1.5294 -0.0987874 0.145841)
(1.66303 -0.1834 0.185007)
(1.37071 0.222975 0.191753)
(1.69114 0.128231 0.355421)
(0.903149 0.0397209 -0.0428737)
(1.59778 -0.277 0.0182893)
(1.35882 0.00138973 0.142745)
(0.622422 0.0250243 0.00909513)
(1.05771 -0.00547437 0.0483592)
(1.70075 0.0120778 0.0456979)
(2.14033 0.13139 0.178685)
(1.77595 -0.260096 0.146844)
(2.00643 -0.337982 0.218871)
(1.73159 -0.298973 0.238693)
(1.29448 -0.221528 0.173623)
(1.50825 -0.296297 0.209618)
(1.3588 0.0315507 0.077827)
(1.2248 0.112825 -0.103786)
(1.98482 -0.259061 0.304859)
(1.45583 -0.0186204 -0.0607299)
(1.22449 -0.0272882 -0.0279835)
(1.1192 -0.0384373 0.0625132)
(1.38848 -0.0823723 0.0831271)
(1.46535 0.0305103 -0.0455894)
(1.17277 -0.0253522 -0.000976914)
(1.74773 0.126774 0.135438)
(1.56838 -0.238194 0.2838)
(1.34548 -0.17925 0.18241)
(1.78351 -0.240442 -0.210173)
(1.47597 -0.20075 0.309215)
(1.56829 -0.255252 0.246942)
(1.19605 -0.217748 0.157923)
(1.69724 -0.269371 0.253941)
(1.29442 0.101298 0.0826382)
(1.51685 -0.0307947 -0.245253)
(1.24627 -0.180705 0.229146)
(1.47705 -0.310718 0.19689)
(1.42219 0.0529062 -0.488387)
(1.72974 -0.252702 0.290928)
(1.23219 -0.178708 0.21932)
(1.72955 -0.290114 0.252244)
(1.49364 -0.216673 0.291819)
(1.49369 -0.291683 0.216426)
(1.4939 -0.289855 0.216445)
(1.23508 -0.222346 0.178262)
(1.73423 -0.298839 0.25139)
(1.4939 -0.216472 0.289982)
(1.7458 -0.245931 0.306801)
(1.73319 -0.29694 0.251296)
(1.23677 -0.178375 0.221988)
(1.73318 -0.251312 0.296923)
(1.6631 -0.183328 0.18535)
(1.74556 -0.306989 0.245621)
(1.13427 -0.180855 0.196448)
(1.48387 -0.288031 0.216609)
(1.37069 0.223041 0.191734)
(0.903196 0.039839 -0.0427311)
(1.69111 0.12836 0.355347)
(1.35888 0.00134778 0.142765)
(0.62228 0.0250398 0.00906425)
(1.05764 -0.00544267 0.0484893)
(1.7008 0.0122085 0.0456329)
(2.14044 0.131405 0.178687)
(1.3401 -0.0341126 0.0342829)
(1.59787 -0.277045 0.0183241)
(1.23671 -0.217984 0.178633)
(1.47733 -0.324066 0.216994)
(1.38781 -0.188054 0.169509)
(0.744617 -0.0171159 -0.0117157)
(1.90853 0.356512 -0.0635238)
(1.38519 0.00575336 0.134835)
(1.09237 0.132148 0.0200996)
(1.90181 0.218092 0.237521)
(2.00896 0.293265 0.249002)
(2.02185 0.292942 0.242544)
(2.03142 0.292753 0.238773)
(2.0326 0.288462 0.240418)
(1.46192 0.0303185 0.1011)
(2.11173 -0.0865541 0.28212)
(1.04318 0.10865 0.0345749)
(1.25658 -0.0732563 -0.0344376)
(1.77356 0.13589 0.0156252)
(2.14162 0.137144 0.179411)
(1.02492 -0.0795578 0.0577059)
(1.85425 0.181993 0.02048)
(1.52878 -0.273471 0.359181)
(1.66699 -0.179063 0.181508)
(1.75779 0.139986 0.0107982)
(1.37132 -8.99068e-05 0.14634)
(1.43614 -0.255168 0.228148)
(1.31779 -0.164529 0.272158)
(1.80101 -0.111901 -0.0729838)
(1.06906 0.135844 0.0590343)
(1.13846 0.078168 0.0161662)
(1.93321 0.370624 -0.0836234)
(1.25161 -0.0340149 0.0636737)
(1.65901 0.025798 0.000515868)
(1.23367 -0.178624 0.222682)
(1.48889 -0.286264 0.216408)
(1.76157 0.138627 0.0111005)
(2.14045 0.131626 0.178612)
(1.2377 -0.174908 0.227505)
(1.42776 -0.25809 0.236054)
(1.33185 -0.184724 0.311843)
(1.35876 -0.219504 0.0727053)
(1.65572 0.111288 0.0190859)
(1.36578 -0.00648443 0.13974)
(0.947255 0.0208222 0.0222667)
(0.593527 0.00705653 0.019169)
(1.79898 -0.0202142 0.110701)
(2.17861 -0.120191 -0.0864925)
(1.64801 0.11178 0.0634943)
(1.90449 0.212614 0.230916)
(2.26079 0.200832 0.164039)
(1.12768 -0.198409 0.179252)
(1.76032 0.138391 0.0109823)
(2.14043 0.131265 0.178417)
(1.13268 -0.197403 0.180121)
(1.76135 0.138911 0.0111211)
(1.34004 -0.0341037 0.034247)
(1.46665 0.0526815 0.0393957)
(1.15847 0.0109436 -0.0546848)
(1.32704 -0.186578 0.172971)
(1.70208 -0.257552 0.282802)
(1.74749 -0.317521 0.243471)
(1.23212 -0.218913 0.178336)
(1.23504 -0.178358 0.222422)
(1.7614 0.139091 0.0112141)
(1.52937 -0.0989911 0.145985)
(1.477 -0.217028 0.324088)
(1.87304 -0.0879404 0.248133)
(0.847136 -0.0379274 0.0371746)
(0.695252 0.0327475 -0.00423483)
(0.787107 -0.0300873 0.0871432)
(0.772075 -0.0417942 0.0708269)
(0.608551 -0.037486 0.0675084)
(0.747868 -0.0371139 0.0754011)
(0.585291 -0.0549933 0.0617112)
(0.744814 -0.0389522 0.0728113)
(0.577844 -0.0555929 0.068444)
(0.575939 -0.0544311 0.0646594)
(0.743739 -0.0333069 0.0746868)
(0.582346 -0.0516816 0.0675817)
(1.01105 -0.0895194 0.0437653)
(0.737916 -0.0116003 -0.0297131)
(1.02293 -0.0813167 0.0520885)
(0.74756 -0.017131 -0.0163447)
(1.43919 -0.169201 0.11953)
(1.13788 0.0768449 0.0345443)
(1.45358 -0.115495 0.185653)
(0.855932 -0.0459071 0.023064)
(0.699471 0.0378234 -0.021462)
(1.10699 -0.0710346 0.0899515)
(0.800554 -0.0553115 0.034456)
(1.13076 -0.1975 0.179772)
(1.02138 -0.08313 0.0504264)
(0.746208 -0.016398 -0.0188802)
(1.4437 -0.167915 0.119071)
(1.14147 0.0734354 0.0368797)
(1.06988 -0.0567258 0.0898219)
(0.776527 -0.0321025 0.0263435)
(1.95099 -0.140771 -0.268802)
(1.06883 -0.0507712 0.0876751)
(0.828492 -0.0345528 0.0813699)
(0.761846 -0.0285764 0.0251727)
(0.629469 -0.0439013 0.0616364)
(1.02221 -0.0826404 0.0509901)
(0.746751 -0.0167758 -0.0181009)
(1.35909 0.00140552 0.142588)
(1.02156 -0.0829923 0.0504883)
(0.746186 -0.0165193 -0.0188199)
(1.35296 -0.127613 0.0948115)
(1.28624 -0.179608 0.218387)
(1.07951 0.111135 0.0296126)
(1.19806 -0.161768 0.223248)
(1.23671 -0.221963 0.178344)
(1.02137 -0.0829668 0.0504442)
(1.13437 -0.197139 0.180086)
(0.746056 -0.016412 -0.0189273)
(1.72461 0.118253 0.320272)
(1.39741 -0.0783402 -0.0406802)
(1.17268 0.045282 0.0249592)
(1.88893 0.0140563 0.138967)
(1.65533 0.0431761 0.0451178)
(1.73785 0.137905 0.0201913)
(1.72739 0.0360898 0.0298583)
(1.73554 0.046674 0.0146827)
(1.70917 0.0447957 0.0109673)
(1.71394 0.0463154 0.0116993)
(1.65499 0.0297954 0.0149292)
(1.52358 0.0118727 -0.0204506)
(1.95621 -0.135832 0.292406)
(1.22488 -0.255248 0.163894)
(2.21866 -0.247303 0.238483)
(2.06801 -0.0194396 0.111132)
(1.698 0.0254546 0.0377607)
(1.48977 -0.538336 -0.0443181)
(2.05801 -0.031684 0.111357)
(1.70194 0.0101512 0.0466875)
(2.0208 -0.367608 -0.0588032)
(1.41385 -0.254606 0.0550934)
(0.988324 0.110097 -0.106842)
(1.18397 0.0731599 -0.0724684)
(1.64069 -0.0576079 -0.308153)
(1.89141 -0.191998 0.304129)
(1.82431 -0.0480661 0.0310104)
(1.92751 0.0199938 0.147679)
(2.27645 -0.199129 0.0502608)
(2.06372 -0.0956697 0.0763744)
(1.72296 -0.0611176 0.09794)
(2.21424 -0.227247 0.21538)
(2.06044 -0.030223 0.111208)
(1.70065 0.0122924 0.0455891)
(1.98646 -0.386771 0.0944499)
(1.30731 -0.277425 0.239499)
(0.981541 0.108873 -0.102763)
(1.17431 0.0937502 -0.0736061)
(1.62575 -0.0624099 -0.321935)
(2.03519 -0.0690678 0.106978)
(2.24067 -0.148005 0.139638)
(1.99706 -0.0243807 0.057106)
(1.83863 0.10815 -0.0456061)
(2.05562 -0.0406395 0.106705)
(1.73238 0.0122906 0.0360671)
(1.58555 0.00186977 0.000974711)
(2.21436 -0.225636 0.213599)
(2.05976 -0.0309419 0.111184)
(1.70081 0.011331 0.0461869)
(2.21421 -0.226439 0.215111)
(2.05999 -0.0302504 0.111358)
(1.18703 -0.272027 0.182297)
(2.06338 0.074125 -0.146907)
(1.38304 -0.119762 -0.0171652)
(1.24704 -0.228763 0.179868)
(1.35295 -0.164389 0.105155)
(1.48507 0.0203275 -0.167989)
(2.21422 -0.226422 0.215494)
(2.05993 -0.0301578 0.111485)
(2.03615 0.0520803 0.0630431)
(1.80204 0.0473217 0.00358197)
(1.78795 0.0118277 0.0103444)
(1.7515 0.0186395 0.000676293)
(1.75215 0.0166761 0.00105568)
(1.76091 0.0257851 -0.00419279)
(1.34737 0.042851 0.0906758)
(2.07845 -0.0203927 0.105135)
(2.25437 -0.0870173 0.0403503)
(2.21296 -0.221611 0.211225)
(2.24604 -0.0773298 0.0335465)
(1.85892 -0.132645 0.0607406)
(2.1896 -0.356065 0.217037)
(1.74137 -0.113638 0.238499)
(1.32658 0.0614091 0.0443952)
(1.97667 -0.335297 0.163361)
(2.08144 0.0391696 0.0770048)
(1.74519 0.362109 -0.252411)
(2.27208 -0.104968 -0.0458205)
(2.24823 -0.0799576 0.034048)
(1.80744 -0.152165 0.0649397)
(2.20089 -0.349331 0.222217)
(1.78796 -0.199492 0.34189)
(2.23657 -0.0507415 0.0178782)
(2.25934 -0.10344 0.188266)
(1.52698 -0.0349166 0.0212993)
(2.2303 -0.0265972 0.0645719)
(1.86737 0.030158 -0.0079577)
(2.24792 -0.0793681 0.0335683)
(2.24802 -0.0795424 0.0341647)
(1.58571 -0.0337959 0.23047)
(1.78723 -0.216534 0.00682285)
(1.49753 -0.283456 0.219011)
(2.24805 -0.0794456 0.0344068)
(2.01875 -0.0339 -0.00257978)
(1.43215 -0.17356 0.0181911)
(1.7243 -0.0311385 0.0666561)
(1.52772 0.0214592 0.113599)
(1.53576 0.0194981 0.117872)
(2.00034 -0.31142 0.240064)
(1.78997 0.00110874 0.192135)
(1.43497 0.0325943 0.175945)
(1.2108 -0.0347403 0.0570721)
(1.75571 0.0668619 0.208035)
(1.36605 0.0171794 0.0701074)
(1.3163 0.0522139 0.0842849)
(1.49745 -0.219041 0.285044)
(1.98367 -0.256253 0.299936)
(2.01029 -0.339177 0.228016)
(1.59106 -0.0073617 0.194695)
(1.91446 -0.112156 0.257568)
(2.22262 -0.208132 0.21801)
(1.48844 0.0550646 0.000974831)
(1.35132 0.0591994 -0.0459219)
(1.76108 -0.0305344 0.0441909)
(1.32566 0.0653023 -0.066683)
(1.73454 -0.0383895 0.004463)
(1.31494 0.0607208 -0.0608417)
(1.68188 -0.0298543 -0.0181288)
(1.31214 0.062137 -0.0614059)
(1.67876 -0.0348259 -0.0125087)
(1.67364 -0.0299455 -0.0164761)
(2.00566 -0.256096 0.281872)
(1.74936 -0.0103344 -0.249001)
(1.34438 -0.12151 0.106191)
(1.1658 0.0258661 -0.0301068)
(1.29794 -0.167252 0.148209)
(1.74293 0.389567 0.182641)
(2.10778 -0.328486 0.0677892)
(1.85883 0.0824611 -0.165266)
)
;

boundaryField
{
    inlet
    {
        type            fixedValue;
        value           uniform (1.667 0 0);
    }
    Walls
    {
        type            noSlip;
    }
    outlet
    {
        type            zeroGradient;
    }
}


// ************************************************************************* //
