/*--------------------------------*- C++ -*----------------------------------*\
  =========                 |
  \\      /  F ield         | OpenFOAM: The Open Source CFD Toolbox
   \\    /   O peration     | Website:  https://openfoam.org
    \\  /    A nd           | Version:  13
     \\/     M anipulation  |
\*---------------------------------------------------------------------------*/
FoamFile
{
    format      ascii;
    class       surfaceScalarField;
    location    "33";
    object      phi;
}
// * * * * * * * * * * * * * * * * * * * * * * * * * * * * * * * * * * * * * //

dimensions      [0 3 -1 0 0 0 0];

internalField   nonuniform List<scalar> 
3675
(
9.78874e-12
1.21158e-11
1.21158e-11
8.0364e-12
8.7618e-13
8.76228e-13
8.80941e-12
-3.86599e-13
-3.8664e-13
8.47372e-12
1.67925e-13
1.6795e-13
8.62635e-12
-7.64265e-14
-7.64432e-14
8.55773e-12
3.44306e-14
3.44525e-14
8.58817e-12
-1.53138e-14
-1.5332e-14
8.57497e-12
6.71429e-15
6.72164e-15
8.58065e-12
-2.88537e-15
-2.88323e-15
8.57821e-12
1.26134e-15
1.25775e-15
8.57937e-12
-5.71824e-16
-5.6901e-16
8.57873e-12
3.21212e-16
3.18732e-16
8.57922e-12
-2.26888e-16
-2.2584e-16
8.57877e-12
2.13277e-16
2.09665e-16
8.57924e-12
-2.09359e-16
-2.05053e-16
8.57878e-12
2.12412e-16
2.11785e-16
8.57925e-12
-2.1462e-16
-2.12321e-16
8.57877e-12
2.16767e-16
2.15677e-16
8.57925e-12
-2.18307e-16
-2.15977e-16
8.57877e-12
2.16048e-16
2.14714e-16
8.57924e-12
-2.12653e-16
-2.10804e-16
8.57876e-12
2.15018e-16
2.02717e-16
8.5792e-12
-2.04853e-16
-1.92263e-16
8.57883e-12
1.66453e-16
1.63778e-16
8.57918e-12
-1.57062e-16
-1.56917e-16
8.57886e-12
1.37967e-16
1.37154e-16
8.57916e-12
-1.30553e-16
-1.31421e-16
1.1885e-16
1.18725e-16
1.75961e-11
1.01902e-11
1.83497e-11
1.61016e-11
8.85705e-13
1.48505e-12
1.67414e-11
-3.88268e-13
-6.38648e-13
1.64755e-11
1.65064e-13
2.6916e-13
1.65965e-11
-7.55839e-14
-1.22388e-13
1.65424e-11
3.42533e-14
5.48617e-14
1.65662e-11
-1.53264e-14
-2.42054e-14
1.65561e-11
6.91858e-15
1.04496e-14
1.65604e-11
-2.95407e-15
-4.43076e-15
1.65586e-11
1.3329e-15
1.92169e-15
1.65595e-11
-5.26133e-16
-9.1707e-16
1.6559e-11
2.88696e-16
5.68865e-16
1.65595e-11
-1.4311e-16
-4.6087e-16
1.6559e-11
1.39706e-16
4.54713e-16
1.65595e-11
-1.07184e-16
-4.66448e-16
1.6559e-11
1.23356e-16
4.81841e-16
1.65595e-11
-1.08148e-16
-4.91462e-16
1.6559e-11
1.08439e-16
5.00796e-16
1.65595e-11
-1.12397e-16
-5.02357e-16
1.6559e-11
1.06643e-16
4.9852e-16
1.65595e-11
-1.1256e-16
-4.87227e-16
1.6559e-11
1.3e-16
4.66197e-16
1.65595e-11
-1.45011e-16
-4.30978e-16
1.65591e-11
7.90857e-17
3.80576e-16
1.65594e-11
-9.8225e-17
-3.43767e-16
1.65591e-11
7.10966e-17
3.02441e-16
1.65594e-11
-8.1148e-17
-2.76447e-16
6.65345e-17
2.57862e-16
2.10991e-11
3.7825e-12
1.93288e-11
2.00015e-11
3.45107e-13
1.63841e-12
2.04701e-11
-1.50969e-13
-7.06513e-13
2.02788e-11
6.34322e-14
2.93372e-13
2.03656e-11
-2.92808e-14
-1.33627e-13
2.03272e-11
1.33582e-14
5.99226e-14
2.03438e-11
-6.02293e-15
-2.6395e-14
2.0337e-11
2.88497e-15
1.13977e-14
2.03399e-11
-1.22931e-15
-4.77732e-15
2.03387e-11
5.90115e-16
2.08076e-15
2.03394e-11
-1.8484e-16
-9.59074e-16
2.03389e-11
9.8361e-17
6.11924e-16
2.03394e-11
-6.50764e-18
-4.8388e-16
2.03389e-11
1.2908e-17
4.93581e-16
2.03394e-11
1.57098e-17
-4.93407e-16
2.0339e-11
-5.80244e-18
5.24821e-16
2.03395e-11
2.19703e-17
-5.26032e-16
2.0339e-11
-2.22768e-17
5.36239e-16
2.03395e-11
1.95132e-17
-5.38616e-16
2.0339e-11
-2.36589e-17
5.32872e-16
2.03395e-11
1.48044e-17
-5.21299e-16
2.03389e-11
2.12012e-17
4.90203e-16
2.03394e-11
-3.78467e-17
-4.68499e-16
2.0339e-11
-1.75951e-17
3.95119e-16
2.03394e-11
9.93283e-19
-3.80797e-16
2.0339e-11
-1.54166e-17
3.2295e-16
2.03393e-11
4.65357e-18
-3.0884e-16
-9.93974e-18
2.81748e-16
2.21434e-11
-3.78271e-12
1.94421e-11
2.11722e-11
-3.45106e-13
1.66152e-12
2.15901e-11
1.50685e-13
-7.20059e-13
2.14191e-11
-6.2987e-14
2.9777e-13
2.14964e-11
2.87249e-14
-1.35838e-13
2.14624e-11
-1.29741e-14
6.09899e-14
2.1477e-11
5.76544e-15
-2.68778e-14
2.14712e-11
-2.35132e-15
1.1625e-14
2.14736e-11
9.89348e-16
-4.84788e-15
2.14726e-11
-3.84305e-16
2.10527e-15
2.14732e-11
2.0388e-16
-9.42633e-16
2.14728e-11
-1.03445e-16
5.93698e-16
2.14733e-11
9.84886e-17
-4.56884e-16
2.14728e-11
-8.49587e-17
4.69983e-16
2.14733e-11
9.11493e-17
-4.61496e-16
2.14729e-11
-9.70204e-17
5.00544e-16
2.14734e-11
1.00917e-16
-4.94618e-16
2.14729e-11
-1.02345e-16
5.05033e-16
2.14734e-11
9.91954e-17
-5.05422e-16
2.14729e-11
-1.02722e-16
5.01193e-16
2.14734e-11
9.36101e-17
-4.88994e-16
2.14728e-11
-5.12036e-17
4.60492e-16
2.14733e-11
5.06862e-17
-4.5066e-16
2.14729e-11
-6.98006e-17
3.64302e-16
2.14732e-11
8.11991e-17
-3.70509e-16
2.14729e-11
-7.52847e-17
3.08489e-16
2.14732e-11
7.96976e-17
-3.06259e-16
-6.99112e-17
2.77156e-16
2.10991e-11
-1.01903e-11
1.93287e-11
2.00015e-11
-8.8568e-13
1.63841e-12
2.04701e-11
3.87989e-13
-7.06467e-13
2.02788e-11
-1.6472e-13
2.93355e-13
2.03656e-11
7.51559e-14
-1.3361e-13
2.03272e-11
-3.39052e-14
5.98863e-14
2.03438e-11
1.50863e-14
-2.63624e-14
2.0337e-11
-6.50364e-15
1.13792e-14
2.03399e-11
2.77876e-15
-4.77744e-15
2.03387e-11
-1.17983e-15
2.07299e-15
2.03394e-11
5.50178e-16
-9.67431e-16
2.03389e-11
-2.93845e-16
6.13666e-16
2.03394e-11
2.20279e-16
-4.92978e-16
2.03389e-11
-1.9876e-16
4.98302e-16
2.03394e-11
1.99233e-16
-5.03377e-16
2.0339e-11
-2.04344e-16
5.32022e-16
2.03395e-11
2.07346e-16
-5.35237e-16
2.0339e-11
-2.09819e-16
5.46193e-16
2.03395e-11
2.08123e-16
-5.47809e-16
2.0339e-11
-2.09787e-16
5.42619e-16
2.03395e-11
2.02194e-16
-5.31533e-16
2.03389e-11
-1.77052e-16
5.01209e-16
2.03394e-11
1.70799e-16
-4.72789e-16
2.0339e-11
-1.5621e-16
4.08175e-16
2.03394e-11
1.6099e-16
-3.84375e-16
2.0339e-11
-1.43716e-16
3.28664e-16
2.03393e-11
1.4475e-16
-3.11325e-16
-1.28254e-16
2.86889e-16
1.75961e-11
-1.21158e-11
1.83497e-11
1.61016e-11
-8.76123e-13
1.48507e-12
1.67414e-11
3.86399e-13
-6.38684e-13
1.64755e-11
-1.67777e-13
2.69185e-13
1.65965e-11
7.62303e-14
-1.22414e-13
1.65424e-11
-3.41965e-14
5.49042e-14
1.65662e-11
1.51393e-14
-2.42285e-14
1.65561e-11
-6.51775e-15
1.04709e-14
1.65604e-11
2.81244e-15
-4.43502e-15
1.65586e-11
-1.19603e-15
1.92071e-15
1.65595e-11
5.82642e-16
-9.07981e-16
1.6559e-11
-3.1722e-16
5.63009e-16
1.65595e-11
2.58176e-16
-4.50178e-16
1.6559e-11
-2.37726e-16
4.44704e-16
1.65595e-11
2.53307e-16
-4.51722e-16
1.6559e-11
-2.40511e-16
4.72893e-16
1.65595e-11
2.5459e-16
-4.79929e-16
1.6559e-11
-2.56751e-16
4.88337e-16
1.65595e-11
2.55783e-16
-4.91008e-16
1.6559e-11
-2.57598e-16
4.85281e-16
1.65595e-11
2.48085e-16
-4.75304e-16
1.6559e-11
-2.6288e-16
4.43382e-16
1.65595e-11
2.37883e-16
-4.12455e-16
1.65591e-11
-1.99777e-16
3.70192e-16
1.65594e-11
1.79862e-16
-3.38151e-16
1.65591e-11
-1.69057e-16
2.95367e-16
1.65594e-11
1.56348e-16
-2.73226e-16
-1.44704e-16
2.56949e-16
9.78874e-12
1.21158e-11
8.0364e-12
8.76261e-13
8.80941e-12
-3.86713e-13
8.47372e-12
1.6797e-13
8.62635e-12
-7.64751e-14
8.55773e-12
3.45318e-14
8.58817e-12
-1.53882e-14
8.57498e-12
6.7551e-15
8.58065e-12
-2.88717e-15
8.57821e-12
1.26291e-15
8.57937e-12
-5.65109e-16
8.57873e-12
3.2154e-16
8.57922e-12
-2.21337e-16
8.57877e-12
2.0636e-16
8.57924e-12
-1.94621e-16
8.57878e-12
2.11698e-16
8.57925e-12
-2.07385e-16
8.57877e-12
2.11326e-16
8.57925e-12
-2.11772e-16
8.57877e-12
2.09544e-16
8.57924e-12
-2.0622e-16
8.57876e-12
1.80632e-16
8.5792e-12
-1.77648e-16
8.57883e-12
1.56971e-16
8.57918e-12
-1.57172e-16
8.57886e-12
1.32515e-16
8.57916e-12
-1.30412e-16
1.15986e-16
1.75961e-11
1.83497e-11
1.01902e-11
1.61016e-11
1.48499e-12
8.8581e-13
1.67414e-11
-6.38591e-13
-3.88366e-13
1.64755e-11
2.69168e-13
1.6508e-13
1.65965e-11
-1.224e-13
-7.55874e-14
1.65424e-11
5.4817e-14
3.43209e-14
1.65662e-11
-2.41575e-14
-1.53924e-14
1.65561e-11
1.04532e-14
6.9203e-15
1.65604e-11
-4.43963e-15
-2.94382e-15
1.65586e-11
1.93124e-15
1.31954e-15
1.65595e-11
-9.17019e-16
-5.23251e-16
1.6559e-11
5.6695e-16
2.8821e-16
1.65595e-11
-4.54926e-16
-1.47182e-16
1.6559e-11
4.54158e-16
1.37198e-16
1.65595e-11
-4.67333e-16
-1.02555e-16
1.6559e-11
4.73098e-16
1.3056e-16
1.65595e-11
-4.86226e-16
-1.11207e-16
1.6559e-11
4.92725e-16
1.14478e-16
1.65595e-11
-4.96915e-16
-1.15647e-16
1.6559e-11
4.90836e-16
1.12046e-16
1.65595e-11
-4.82891e-16
-1.1512e-16
1.6559e-11
4.89576e-16
9.46134e-17
1.65595e-11
-4.52097e-16
-1.11542e-16
1.65591e-11
3.79571e-16
7.76082e-17
1.65594e-11
-3.37712e-16
-1.03501e-16
1.65591e-11
2.99699e-16
7.31786e-17
1.65594e-11
-2.71766e-16
-8.61287e-17
2.55108e-16
6.95511e-17
3.57723e-11
1.74735e-11
1.74735e-11
3.5422e-11
1.66028e-12
1.66045e-12
3.55419e-11
-6.9923e-13
-6.99372e-13
3.55115e-11
2.84931e-13
2.84897e-13
3.55269e-11
-1.30916e-13
-1.30865e-13
3.55196e-11
5.93396e-14
5.94387e-14
3.55233e-11
-2.6623e-14
-2.67278e-14
3.55216e-11
1.20753e-14
1.20407e-14
3.55226e-11
-5.21954e-15
-5.1871e-15
3.55222e-11
2.37133e-15
2.33718e-15
3.55224e-11
-9.7275e-16
-9.70913e-16
3.55225e-11
5.37607e-16
5.42627e-16
3.55224e-11
-2.77625e-16
-2.93558e-16
3.55226e-11
2.57075e-16
2.6067e-16
3.55225e-11
-2.07905e-16
-2.09489e-16
3.55227e-11
2.26447e-16
2.50399e-16
3.55225e-11
-2.05316e-16
-2.23891e-16
3.55227e-11
2.0807e-16
2.30521e-16
3.55225e-11
-2.16067e-16
-2.3526e-16
3.55227e-11
2.05418e-16
2.26638e-16
3.55225e-11
-2.18969e-16
-2.34942e-16
3.55226e-11
2.50606e-16
1.86159e-16
3.55225e-11
-2.56539e-16
-1.9655e-16
3.55226e-11
1.7005e-16
1.78333e-16
3.55225e-11
-1.66015e-16
-1.8267e-16
3.55226e-11
1.28064e-16
1.39515e-16
3.55225e-11
-1.23983e-16
-1.38886e-16
1.06533e-16
1.16981e-16
4.48126e-11
6.79996e-12
1.92096e-11
4.55318e-11
6.7702e-13
1.90281e-12
4.52041e-11
-2.81736e-13
-7.97722e-13
4.53538e-11
1.12489e-13
3.17202e-13
4.52861e-11
-5.20857e-14
-1.46186e-13
4.53168e-11
2.37302e-14
6.64637e-14
4.53031e-11
-1.07292e-14
-2.9865e-14
4.53094e-11
5.16506e-15
1.34569e-14
4.53069e-11
-2.24197e-15
-5.7493e-15
4.53081e-11
1.09123e-15
2.59162e-15
4.53077e-11
-3.7542e-16
-1.04925e-15
4.53081e-11
2.15264e-16
5.9413e-16
4.53079e-11
-4.44468e-17
-3.08759e-16
4.53081e-11
5.1194e-17
2.81432e-16
4.5308e-11
-3.45182e-18
-2.12668e-16
4.53083e-11
1.56371e-17
2.74795e-16
4.53081e-11
7.80452e-18
-2.34695e-16
4.53083e-11
-7.93534e-18
2.43873e-16
4.5308e-11
-1.55504e-19
-2.47901e-16
4.53083e-11
-1.00603e-17
2.38649e-16
4.5308e-11
-7.59291e-18
-2.47753e-16
4.53081e-11
7.47425e-17
1.79181e-16
4.5308e-11
-9.13272e-17
-2.06379e-16
4.53082e-11
1.73608e-18
1.78836e-16
4.5308e-11
-6.68238e-18
-2.07081e-16
4.53081e-11
-1.49924e-17
1.46711e-16
4.5308e-11
1.3248e-17
-1.59882e-16
-1.86563e-17
1.30292e-16
4.75907e-11
-6.80028e-12
1.94715e-11
4.86587e-11
-6.77027e-13
1.94795e-12
4.81933e-11
2.8117e-13
-8.18953e-13
4.83931e-11
-1.11718e-13
3.23075e-13
4.8302e-11
5.1099e-14
-1.49103e-13
4.83435e-11
-2.30243e-14
6.78429e-14
4.83249e-11
1.02308e-14
-3.04879e-14
4.83334e-11
-4.1715e-15
1.37089e-14
4.833e-11
1.80021e-15
-5.84347e-15
4.83316e-11
-7.00534e-16
2.62024e-15
4.83311e-11
4.06502e-16
-1.05656e-15
4.83315e-11
-2.01402e-16
5.9511e-16
4.83313e-11
2.06192e-16
-3.06063e-16
4.83315e-11
-1.67188e-16
2.79155e-16
4.83314e-11
1.93841e-16
-2.06547e-16
4.83317e-11
-1.90254e-16
2.74903e-16
4.83315e-11
2.06255e-16
-2.32259e-16
4.83317e-11
-2.0914e-16
2.4069e-16
4.83315e-11
2.04036e-16
-2.44967e-16
4.83317e-11
-2.10687e-16
2.34998e-16
4.83314e-11
1.97086e-16
-2.44006e-16
4.83315e-11
-1.21736e-16
1.59525e-16
4.83314e-11
1.02429e-16
-1.93478e-16
4.83315e-11
-1.62432e-16
1.73852e-16
4.83314e-11
1.50284e-16
-2.11543e-16
4.83315e-11
-1.47997e-16
1.48259e-16
4.83313e-11
1.42833e-16
-1.66814e-16
-1.29855e-16
1.35726e-16
4.48126e-11
-1.74738e-11
1.92097e-11
4.55318e-11
-1.66024e-12
1.90285e-12
4.52041e-11
6.98694e-13
-7.97673e-13
4.53538e-11
-2.84321e-13
3.17104e-13
4.52861e-11
1.30113e-13
-1.46059e-13
4.53168e-11
-5.86663e-14
6.63892e-14
4.53031e-11
2.61293e-14
-2.9805e-14
4.53094e-11
-1.12555e-14
1.33331e-14
4.53069e-11
4.86319e-15
-5.70095e-15
4.53081e-11
-2.06297e-15
2.53848e-15
4.53077e-11
9.9626e-16
-1.05474e-15
4.53081e-11
-5.18451e-16
5.95608e-16
4.53079e-11
4.03411e-16
-3.2911e-16
4.53081e-11
-3.50232e-16
2.98544e-16
4.5308e-11
3.65279e-16
-2.36918e-16
4.53083e-11
-3.5726e-16
2.98067e-16
4.53081e-11
3.71706e-16
-2.64523e-16
4.53083e-11
-3.76165e-16
2.71258e-16
4.5308e-11
3.72308e-16
-2.76822e-16
4.53083e-11
-3.78068e-16
2.6578e-16
4.5308e-11
3.63283e-16
-2.731e-16
4.53081e-11
-3.32022e-16
1.80562e-16
4.5308e-11
3.07429e-16
-2.0432e-16
4.53082e-11
-2.92426e-16
2.0101e-16
4.5308e-11
2.77757e-16
-2.25689e-16
4.53081e-11
-2.5745e-16
1.6804e-16
4.5308e-11
2.49321e-16
-1.78531e-16
-2.20367e-16
1.51259e-16
3.57723e-11
-1.83498e-11
1.74735e-11
3.5422e-11
-1.48495e-12
1.66047e-12
3.55419e-11
6.3831e-13
-6.9928e-13
3.55115e-11
-2.68934e-13
2.84751e-13
3.55269e-11
1.22072e-13
-1.30676e-13
3.55196e-11
-5.44682e-14
5.93136e-14
3.55233e-11
2.38883e-14
-2.66202e-14
3.55216e-11
-1.01045e-14
1.18579e-14
3.55226e-11
4.29574e-15
-5.10713e-15
3.55222e-11
-1.81031e-15
2.25668e-15
3.55224e-11
9.27668e-16
-9.7298e-16
3.55225e-11
-5.52955e-16
5.41517e-16
3.55224e-11
5.04645e-16
-3.19804e-16
3.55226e-11
-4.94165e-16
2.83197e-16
3.55225e-11
5.39062e-16
-2.40346e-16
3.55227e-11
-5.20007e-16
2.82829e-16
3.55225e-11
5.51805e-16
-2.63024e-16
3.55227e-11
-5.58195e-16
2.67707e-16
3.55225e-11
5.5673e-16
-2.72935e-16
3.55227e-11
-5.59639e-16
2.63434e-16
3.55225e-11
5.3912e-16
-2.68122e-16
3.55226e-11
-5.58726e-16
1.90129e-16
3.55225e-11
5.05611e-16
-1.97457e-16
3.55226e-11
-4.28053e-16
2.05334e-16
3.55225e-11
3.81275e-16
-2.10053e-16
3.55226e-11
-3.52014e-16
1.68126e-16
3.55225e-11
3.22492e-16
-1.67357e-16
-2.97209e-16
1.4746e-16
1.75961e-11
1.01903e-11
1.61016e-11
8.85793e-13
1.67414e-11
-3.88278e-13
1.64755e-11
1.6495e-13
1.65965e-11
-7.54409e-14
1.65425e-11
3.42246e-14
1.65662e-11
-1.53256e-14
1.65561e-11
6.7918e-15
1.65604e-11
-2.89474e-15
1.65586e-11
1.27113e-15
1.65595e-11
-5.34859e-16
1.6559e-11
2.95765e-16
1.65595e-11
-1.74335e-16
1.6559e-11
1.59458e-16
1.65595e-11
-1.32125e-16
1.6559e-11
1.60808e-16
1.65595e-11
-1.46632e-16
1.6559e-11
1.49813e-16
1.65595e-11
-1.50431e-16
1.6559e-11
1.47225e-16
1.65595e-11
-1.46255e-16
1.6559e-11
1.06639e-16
1.65595e-11
-1.18835e-16
1.65591e-11
1.04169e-16
1.65594e-11
-1.25294e-16
1.65591e-11
9.76927e-17
1.65594e-11
-1.067e-16
8.98869e-17
2.10991e-11
1.93287e-11
3.78256e-12
2.00015e-11
1.63839e-12
3.45202e-13
2.04701e-11
-7.06476e-13
-1.51062e-13
2.02788e-11
2.93406e-13
6.34008e-14
2.03656e-11
-1.33654e-13
-2.92381e-14
2.03272e-11
5.98706e-14
1.34319e-14
2.03438e-11
-2.63368e-14
-6.10386e-15
2.0337e-11
1.14045e-14
2.85709e-15
2.03399e-11
-4.78651e-15
-1.20849e-15
2.03387e-11
2.09088e-15
5.62876e-16
2.03394e-11
-9.57718e-16
-1.84311e-16
2.03389e-11
6.07444e-16
1.01733e-16
2.03394e-11
-4.76091e-16
-1.76415e-17
2.03389e-11
4.9095e-16
1.71229e-17
2.03394e-11
-4.92094e-16
1.26977e-17
2.0339e-11
5.13545e-16
1.04493e-17
2.03395e-11
-5.17506e-16
7.58399e-18
2.0339e-11
5.25768e-16
-6.65224e-18
2.03395e-11
-5.29721e-16
4.8909e-18
2.0339e-11
5.22835e-16
-8.78341e-18
2.03395e-11
-5.14055e-16
2.50139e-18
2.03389e-11
5.18055e-16
-2.26407e-17
2.03394e-11
-4.93023e-16
3.0891e-18
2.0339e-11
3.909e-16
-1.18156e-17
2.03394e-11
-3.73193e-16
-1.07445e-17
2.0339e-11
3.18816e-16
-6.6213e-18
2.03393e-11
-3.03635e-16
-5.15625e-18
2.78165e-16
-1.03251e-18
4.48126e-11
1.92096e-11
6.79994e-12
4.55318e-11
1.90273e-12
6.77197e-13
4.52041e-11
-7.97606e-13
-2.819e-13
4.53538e-11
3.17276e-13
1.12426e-13
4.52861e-11
-1.46247e-13
-5.20076e-14
4.53168e-11
6.6312e-14
2.38754e-14
4.53031e-11
-2.97082e-14
-1.0878e-14
4.53094e-11
1.34872e-14
5.10763e-15
4.53069e-11
-5.78178e-15
-2.19914e-15
4.53081e-11
2.63182e-15
1.03706e-15
4.53077e-11
-1.04987e-15
-3.72359e-16
4.53081e-11
5.88916e-16
2.19592e-16
4.53079e-11
-2.90477e-16
-6.44738e-17
4.53081e-11
2.79808e-16
5.57795e-17
4.5308e-11
-2.13583e-16
-6.49902e-18
4.53083e-11
2.47186e-16
4.61864e-17
4.53081e-11
-2.14802e-16
-1.7813e-17
4.53083e-11
2.1883e-16
2.06144e-17
4.5308e-11
-2.27346e-16
-2.63892e-17
4.53083e-11
2.15066e-16
1.67699e-17
4.5308e-11
-2.30748e-16
-2.98103e-17
4.53081e-11
2.657e-16
-1.8157e-17
4.5308e-11
-2.84753e-16
-4.41004e-18
4.53082e-11
1.6852e-16
1.4995e-17
4.5308e-11
-1.87572e-16
-2.85575e-17
4.53081e-11
1.3517e-16
1.47627e-18
4.5308e-11
-1.44119e-16
-6.46445e-18
1.18121e-16
-2.46857e-18
5.7143e-11
7.64798e-12
7.64808e-12
5.93639e-11
7.92464e-13
7.92571e-13
5.84209e-11
-3.26768e-13
-3.26913e-13
5.8803e-11
1.26735e-13
1.26614e-13
5.8627e-11
-5.89479e-14
-5.88357e-14
5.87074e-11
2.68938e-14
2.70779e-14
5.86711e-11
-1.21417e-14
-1.23348e-14
5.86878e-11
5.85767e-15
5.79155e-15
5.86807e-11
-2.51543e-15
-2.4674e-15
5.8684e-11
1.22208e-15
1.1597e-15
5.86828e-11
-4.00247e-16
-4.00279e-16
5.86835e-11
2.32099e-16
2.40127e-16
5.86832e-11
-3.28798e-17
-5.93498e-17
5.86835e-11
4.77469e-17
5.46017e-17
5.86834e-11
1.3328e-17
8.634e-18
5.86837e-11
7.41772e-18
4.68708e-17
5.86835e-11
2.35421e-17
-8.83489e-18
5.86837e-11
-2.44952e-17
1.21608e-17
5.86835e-11
1.43016e-17
-1.8939e-17
5.86837e-11
-2.76202e-17
7.0528e-18
5.86835e-11
5.10141e-18
-2.26644e-17
5.86835e-11
6.61537e-17
-4.74825e-17
5.86834e-11
-9.16638e-17
1.17426e-17
5.86835e-11
-1.47448e-17
3.48176e-18
5.86833e-11
-4.02196e-18
-3.20581e-17
5.86834e-11
-2.47111e-17
-5.26726e-18
5.86833e-11
1.45272e-17
-8.48735e-18
-2.28288e-17
-3.27435e-18
6.09932e-11
-7.64845e-12
7.79473e-12
6.37103e-11
-7.9246e-13
8.16162e-13
6.25743e-11
3.26072e-13
-3.371e-13
6.30215e-11
-1.25816e-13
1.29247e-13
6.28147e-11
5.77899e-14
-6.01352e-14
6.29092e-11
-2.60452e-14
2.76919e-14
6.28665e-11
1.15698e-14
-1.26007e-14
6.28861e-11
-4.69928e-15
5.87157e-15
6.28778e-11
2.02254e-15
-2.49265e-15
6.28817e-11
-7.91196e-16
1.15378e-15
6.28803e-11
4.55054e-16
-4.0364e-16
6.28811e-11
-2.24592e-16
2.42172e-16
6.28808e-11
2.31667e-16
-6.46667e-17
6.28811e-11
-1.88325e-16
5.95132e-17
6.2881e-11
2.18055e-16
4.69165e-18
6.28813e-11
-2.14475e-16
5.62862e-17
6.28811e-11
2.31049e-16
-1.77026e-17
6.28813e-11
-2.35471e-16
2.05667e-17
6.28811e-11
2.27499e-16
-2.77536e-17
6.28813e-11
-2.37811e-16
1.48937e-17
6.2881e-11
2.18648e-16
-2.99922e-17
6.28811e-11
-1.39957e-16
-5.81927e-17
6.28809e-11
1.22233e-16
1.96098e-17
6.28811e-11
-1.78392e-16
8.33522e-18
6.28809e-11
1.71627e-16
-4.15165e-17
6.2881e-11
-1.67633e-16
2.00716e-18
6.28808e-11
1.64613e-16
-1.84871e-17
-1.46086e-16
6.23024e-18
5.7143e-11
-1.92099e-11
7.64814e-12
5.93639e-11
-1.9027e-12
7.92631e-13
5.84209e-11
7.96949e-13
-3.26845e-13
5.8803e-11
-3.1654e-13
1.26483e-13
5.8627e-11
1.45303e-13
-5.86632e-14
5.87074e-11
-6.55161e-14
2.6956e-14
5.86711e-11
2.91556e-14
-1.22327e-14
5.86878e-11
-1.25329e-14
5.62345e-15
5.86808e-11
5.39353e-15
-2.39897e-15
5.8684e-11
-2.29356e-15
1.08729e-15
5.86828e-11
1.10271e-15
-4.07938e-16
5.86835e-11
-5.81079e-16
2.45387e-16
5.86832e-11
4.54766e-16
-8.91119e-17
5.86835e-11
-4.00135e-16
8.18492e-17
5.86834e-11
4.15265e-16
-2.72219e-17
5.86837e-11
-4.11243e-16
8.27924e-17
5.86835e-11
4.23904e-16
-5.25217e-17
5.86837e-11
-4.31048e-16
5.34385e-17
5.86835e-11
4.24365e-16
-6.17013e-17
5.86837e-11
-4.33459e-16
4.80022e-17
5.86835e-11
4.13411e-16
-6.09401e-17
5.86835e-11
-3.78231e-16
-3.3569e-17
5.86834e-11
3.55194e-16
2.88175e-18
5.86835e-11
-3.285e-16
3.50383e-17
5.86833e-11
3.2097e-16
-5.99363e-17
5.86834e-11
-2.93301e-16
2.48204e-17
5.86833e-11
2.87673e-16
-3.50768e-17
-2.5003e-16
2.52224e-17
4.48125e-11
-1.93289e-11
6.79994e-12
4.55318e-11
-1.63833e-12
6.77209e-13
4.52041e-11
7.06092e-13
-2.81787e-13
4.53538e-11
-2.93077e-13
1.1225e-13
4.52861e-11
1.33223e-13
-5.17789e-14
4.53168e-11
-5.9424e-14
2.37172e-14
4.53031e-11
2.60149e-14
-1.07413e-14
4.53094e-11
-1.09654e-14
4.88915e-15
4.53069e-11
4.62509e-15
-2.10161e-15
4.53081e-11
-1.94772e-15
9.38733e-16
4.53077e-11
9.88762e-16
-3.73418e-16
4.53081e-11
-6.01852e-16
2.17998e-16
4.53079e-11
5.51813e-16
-9.55297e-17
4.53081e-11
-5.49894e-16
8.35589e-17
4.5308e-11
5.94393e-16
-4.44747e-17
4.53083e-11
-5.82945e-16
8.51396e-17
4.53081e-11
6.13101e-16
-6.51429e-17
4.53083e-11
-6.21257e-16
6.55033e-17
4.5308e-11
6.18533e-16
-7.22168e-17
4.53083e-11
-6.22481e-16
6.1198e-17
4.5308e-11
5.96604e-16
-7.02161e-17
4.53081e-11
-6.12649e-16
-9.12813e-18
4.5308e-11
5.62383e-16
-8.84799e-18
4.53082e-11
-4.65679e-16
4.71757e-17
4.5308e-11
4.30121e-16
-6.13063e-17
4.53081e-11
-3.91561e-16
3.6361e-17
4.5308e-11
3.65807e-16
-4.05224e-17
-3.3262e-16
3.343e-17
2.10991e-11
3.7826e-12
2.00015e-11
3.45156e-13
2.04701e-11
-1.50935e-13
2.02788e-11
6.32408e-14
2.03656e-11
-2.90458e-14
2.03272e-11
1.32802e-14
2.03438e-11
-5.98557e-15
2.0337e-11
2.68693e-15
2.03399e-11
-1.13792e-15
2.03387e-11
4.94739e-16
2.03394e-11
-1.90004e-16
2.03389e-11
1.05237e-16
2.03394e-11
-4.56686e-17
2.03389e-11
4.19001e-17
2.03394e-11
-2.08142e-17
2.0339e-11
4.29828e-17
2.03395e-11
-3.16039e-17
2.0339e-11
3.18094e-17
2.03395e-11
-3.3536e-17
2.0339e-11
2.93979e-17
2.03395e-11
-3.22368e-17
2.03389e-11
-4.2138e-18
2.03394e-11
-8.9022e-18
2.0339e-11
1.71267e-17
2.03394e-11
-3.62591e-17
2.0339e-11
2.17418e-17
2.03393e-11
-3.11208e-17
2.51932e-17
2.21434e-11
1.94421e-11
-3.78269e-12
2.11722e-11
1.6615e-12
-3.45037e-13
2.15901e-11
-7.20027e-13
1.5061e-13
2.14191e-11
2.97801e-13
-6.30378e-14
2.14964e-11
-1.35862e-13
2.87817e-14
2.14624e-11
6.09463e-14
-1.29049e-14
2.1477e-11
-2.68319e-14
5.68801e-15
2.14712e-11
1.16369e-14
-2.38674e-15
2.14736e-11
-4.85915e-15
1.00928e-15
2.14726e-11
2.11696e-15
-4.12569e-16
2.14732e-11
-9.42302e-16
2.03443e-16
2.14728e-11
5.90765e-16
-9.84726e-17
2.14733e-11
-4.50077e-16
8.64928e-17
2.14728e-11
4.68298e-16
-7.7947e-17
2.14733e-11
-4.60434e-16
8.46588e-17
2.14729e-11
4.90482e-16
-7.9692e-17
2.14734e-11
-4.86865e-16
8.35905e-17
2.14729e-11
4.95778e-16
-8.54189e-17
2.14734e-11
-4.97413e-16
8.1619e-17
2.14729e-11
4.92354e-16
-8.64757e-17
2.14734e-11
-4.8267e-16
7.89396e-17
2.14728e-11
4.85893e-16
-9.27533e-17
2.14733e-11
-4.72792e-16
8.89077e-17
2.14729e-11
3.60005e-16
-6.13805e-17
2.14732e-11
-3.63475e-16
6.86616e-17
2.14729e-11
3.04553e-16
-6.53587e-17
2.14732e-11
-3.01146e-16
7.01525e-17
2.72978e-16
-5.99872e-17
4.75907e-11
1.94714e-11
-6.80016e-12
4.86587e-11
1.94793e-12
-6.76968e-13
4.81933e-11
-8.1886e-13
2.81083e-13
4.83931e-11
3.23177e-13
-1.11809e-13
4.8302e-11
-1.4918e-13
5.11863e-14
4.83435e-11
6.7679e-14
-2.28966e-14
4.83249e-11
-3.03192e-14
1.00972e-14
4.83334e-11
1.37458e-14
-4.22953e-15
4.833e-11
-5.8792e-15
1.83427e-15
4.83316e-11
2.66491e-15
-7.52798e-16
4.83311e-11
-1.05666e-15
4.0782e-16
4.83315e-11
5.89486e-16
-1.98605e-16
4.83313e-11
-2.86066e-16
1.88686e-16
4.83315e-11
2.77241e-16
-1.62614e-16
4.83314e-11
-2.06994e-16
1.89224e-16
4.83317e-11
2.44687e-16
-1.64323e-16
4.83315e-11
-2.10399e-16
1.82447e-16
4.83317e-11
2.13347e-16
-1.84639e-16
4.83315e-11
-2.22366e-16
1.79848e-16
4.83317e-11
2.09266e-16
-1.87608e-16
4.83314e-11
-2.2553e-16
1.75997e-16
4.83315e-11
2.55459e-16
-2.05058e-16
4.83314e-11
-2.79605e-16
1.8079e-16
4.83315e-11
1.61318e-16
-1.47824e-16
4.83314e-11
-1.90011e-16
1.31505e-16
4.83315e-11
1.35661e-16
-1.3228e-16
4.83313e-11
-1.49663e-16
1.26002e-16
1.22177e-16
-1.14873e-16
6.09932e-11
7.7947e-12
-7.64845e-12
6.37103e-11
8.16035e-13
-7.92322e-13
6.25743e-11
-3.3694e-13
3.25939e-13
6.30215e-11
1.29372e-13
-1.25933e-13
6.28147e-11
-6.025e-14
5.79121e-14
6.29092e-11
2.74924e-14
-2.59049e-14
6.28665e-11
-1.2396e-14
1.14199e-14
6.28861e-11
5.94274e-15
-4.78314e-15
6.28778e-11
-2.54412e-15
2.06965e-15
6.28817e-11
1.22017e-15
-8.55111e-16
6.28803e-11
-4.03739e-16
4.53505e-16
6.28811e-11
2.33833e-16
-2.16346e-16
6.28808e-11
-3.69608e-17
2.04873e-16
6.28811e-11
5.25813e-17
-1.77402e-16
6.2881e-11
9.2913e-18
2.07373e-16
6.28813e-11
1.4573e-17
-1.75794e-16
6.28811e-11
1.62145e-17
1.9602e-16
6.28813e-11
-1.78378e-17
-1.98434e-16
6.28811e-11
7.05326e-18
1.91888e-16
6.28813e-11
-2.13882e-17
-2.02434e-16
6.2881e-11
-8.93762e-19
1.88174e-16
6.28811e-11
6.3976e-17
-2.35214e-16
6.28809e-11
-9.06664e-17
2.09226e-16
6.28811e-11
-1.14673e-17
-1.57019e-16
6.28809e-11
-1.16478e-17
1.43929e-16
6.2881e-11
-1.82227e-17
-1.46259e-16
6.28808e-11
5.83456e-18
1.41623e-16
-1.46409e-17
-1.25847e-16
6.51996e-11
-7.7951e-12
-7.79508e-12
6.8464e-11
-8.16071e-13
-8.15824e-13
6.71164e-11
3.36312e-13
3.36107e-13
6.7633e-11
-1.28552e-13
-1.28637e-13
6.7393e-11
5.92074e-14
5.93133e-14
6.75028e-11
-2.67169e-14
-2.65555e-14
6.74531e-11
1.18926e-14
1.17294e-14
6.74759e-11
-4.87895e-15
-4.96268e-15
6.74663e-11
2.09547e-15
2.14762e-15
6.74708e-11
-8.39468e-16
-9.06099e-16
6.74691e-11
4.60882e-16
4.6228e-16
6.74701e-11
-2.24621e-16
-2.18237e-16
6.74697e-11
2.22787e-16
1.9725e-16
6.747e-11
-1.78053e-16
-1.6963e-16
6.74699e-11
2.04513e-16
1.97643e-16
6.74702e-11
-2.02448e-16
-1.63917e-16
6.747e-11
2.14334e-16
1.8171e-16
6.74702e-11
-2.21278e-16
-1.85258e-16
6.747e-11
2.10424e-16
1.77266e-16
6.74702e-11
-2.23944e-16
-1.89807e-16
6.747e-11
2.03321e-16
1.75741e-16
6.747e-11
-1.32258e-16
-2.37173e-16
6.74699e-11
1.18024e-16
2.12457e-16
6.747e-11
-1.65372e-16
-1.47153e-16
6.74698e-11
1.63445e-16
1.35241e-16
6.74699e-11
-1.57403e-16
-1.37151e-16
6.74697e-11
1.5776e-16
1.33589e-16
-1.36527e-16
-1.16175e-16
6.09932e-11
-1.94718e-11
-7.6484e-12
6.37103e-11
-1.9479e-12
-7.92258e-13
6.25743e-11
8.18253e-13
3.25978e-13
6.30215e-11
-3.22509e-13
-1.26035e-13
6.28147e-11
1.48307e-13
5.80599e-14
6.29092e-11
-6.69359e-14
-2.60094e-14
6.28665e-11
2.98127e-14
1.15133e-14
6.28861e-11
-1.28489e-14
-4.93065e-15
6.28778e-11
5.51416e-15
2.13661e-15
6.28817e-11
-2.35202e-15
-9.24683e-16
6.28803e-11
1.10176e-15
4.55636e-16
6.28811e-11
-5.71444e-16
-2.18003e-16
6.28808e-11
4.3368e-16
1.85716e-16
6.28811e-11
-3.7961e-16
-1.59002e-16
6.2881e-11
3.88403e-16
1.83147e-16
6.28813e-11
-3.87181e-16
-1.5037e-16
6.28811e-11
3.94303e-16
1.64887e-16
6.28813e-11
-4.02108e-16
-1.69498e-16
6.28811e-11
3.938e-16
1.61436e-16
6.28813e-11
-4.04454e-16
-1.74027e-16
6.2881e-11
3.84175e-16
1.6172e-16
6.28811e-11
-3.52001e-16
-2.29109e-16
6.28809e-11
3.37244e-16
2.05849e-16
6.28811e-11
-3.02141e-16
-1.36565e-16
6.28809e-11
3.08919e-16
1.22081e-16
6.2881e-11
-2.79183e-16
-1.22885e-16
6.28808e-11
2.82534e-16
1.18352e-16
-2.41803e-16
-1.01417e-16
4.75907e-11
-1.94422e-11
-6.80014e-12
4.86587e-11
-1.66145e-12
-6.77006e-13
4.81933e-11
7.197e-13
2.813e-13
4.83931e-11
-2.97522e-13
-1.12082e-13
4.8302e-11
1.35474e-13
5.15439e-14
4.83435e-11
-6.05507e-14
-2.32e-14
4.83249e-11
2.65528e-14
1.03716e-14
4.83334e-11
-1.12283e-14
-4.56259e-15
4.833e-11
4.70785e-15
1.98655e-15
4.83316e-11
-1.97996e-15
-9.05342e-16
4.83311e-11
9.59332e-16
4.13549e-16
4.83315e-11
-5.6945e-16
-2.04683e-16
4.83313e-11
5.0688e-16
1.45537e-16
4.83315e-11
-5.07951e-16
-1.22372e-16
4.83314e-11
5.42336e-16
1.34509e-16
4.83317e-11
-5.35892e-16
-1.07851e-16
4.83315e-11
5.5846e-16
1.16581e-16
4.83317e-11
-5.65911e-16
-1.20097e-16
4.83315e-11
5.61911e-16
1.15347e-16
4.83317e-11
-5.66486e-16
-1.24453e-16
4.83314e-11
5.40449e-16
1.16155e-16
4.83315e-11
-5.54513e-16
-1.7043e-16
4.83314e-11
5.18976e-16
1.56083e-16
4.83315e-11
-4.15702e-16
-9.97356e-17
4.83314e-11
4.06121e-16
8.31645e-17
4.83315e-11
-3.65648e-16
-8.21006e-17
4.83313e-11
3.55433e-16
7.45077e-17
-3.2041e-16
-6.20812e-17
2.21434e-11
-3.78265e-12
2.11722e-11
-3.45107e-13
2.15901e-11
1.50774e-13
2.14191e-11
-6.32189e-14
2.14964e-11
2.89885e-14
2.14624e-11
-1.30897e-14
2.1477e-11
5.83752e-15
2.14712e-11
-2.56043e-15
2.14736e-11
1.08138e-15
2.14726e-11
-4.78449e-16
2.14732e-11
1.9148e-16
2.14728e-11
-8.4187e-17
2.14733e-11
4.99329e-17
2.14728e-11
-4.16618e-17
2.14733e-11
4.0603e-17
2.14729e-11
-3.44687e-17
2.14734e-11
3.22356e-17
2.14729e-11
-3.43881e-17
2.14734e-11
3.045e-17
2.14729e-11
-3.56058e-17
2.14734e-11
3.0116e-17
2.14728e-11
-5.5376e-17
2.14733e-11
5.9687e-17
2.14729e-11
-2.26923e-17
2.14732e-11
3.6065e-17
2.14729e-11
-3.26511e-17
2.14732e-11
4.18663e-17
-3.14817e-17
2.10991e-11
1.93287e-11
-1.01903e-11
2.00015e-11
1.6384e-12
-8.85677e-13
2.04701e-11
-7.06453e-13
3.87975e-13
2.02788e-11
2.9338e-13
-1.64764e-13
2.03656e-11
-1.33629e-13
7.5199e-14
2.03272e-11
5.98539e-14
-3.38789e-14
2.03438e-11
-2.633e-14
1.5054e-14
2.0337e-11
1.13904e-14
-6.53048e-15
2.03399e-11
-4.78858e-15
2.79068e-15
2.03387e-11
2.08493e-15
-1.19723e-15
2.03394e-11
-9.67662e-16
5.4918e-16
2.03389e-11
6.13195e-16
-2.90617e-16
2.03394e-11
-4.87332e-16
2.1273e-16
2.03389e-11
4.9894e-16
-1.93458e-16
2.03394e-11
-5.03957e-16
1.93325e-16
2.0339e-11
5.2389e-16
-1.93976e-16
2.03395e-11
-5.30208e-16
1.95828e-16
2.0339e-11
5.38715e-16
-1.99425e-16
2.03395e-11
-5.42574e-16
1.96429e-16
2.0339e-11
5.3561e-16
-1.99762e-16
2.03395e-11
-5.26629e-16
1.91617e-16
2.03389e-11
5.25977e-16
-1.97332e-16
2.03394e-11
-4.9602e-16
1.90267e-16
2.0339e-11
4.03792e-16
-1.48659e-16
2.03394e-11
-3.78695e-16
1.53622e-16
2.0339e-11
3.25408e-16
-1.37043e-16
2.03393e-11
-3.06288e-16
1.39412e-16
2.83776e-16
-1.21616e-16
4.48126e-11
1.92096e-11
-1.74737e-11
4.55318e-11
1.90273e-12
-1.66027e-12
4.52041e-11
-7.97528e-13
6.9868e-13
4.53538e-11
3.17176e-13
-2.84377e-13
4.52861e-11
-1.46121e-13
1.30158e-13
4.53168e-11
6.62175e-14
-5.86021e-14
4.53031e-11
-2.96352e-14
2.6062e-14
4.53094e-11
1.33719e-14
-1.12845e-14
4.53069e-11
-5.73747e-15
4.87623e-15
4.53081e-11
2.58341e-15
-2.08965e-15
4.53077e-11
-1.05644e-15
9.96002e-16
4.53081e-11
5.91069e-16
-5.17959e-16
4.53079e-11
-3.11166e-16
3.95389e-16
4.53081e-11
2.97595e-16
-3.48255e-16
4.5308e-11
-2.38823e-16
3.6266e-16
4.53083e-11
2.69785e-16
-3.4569e-16
4.53081e-11
-2.44107e-16
3.60507e-16
4.53083e-11
2.46235e-16
-3.65109e-16
4.5308e-11
-2.55745e-16
3.61194e-16
4.53083e-11
2.42429e-16
-3.67532e-16
4.5308e-11
-2.56629e-16
3.53825e-16
4.53081e-11
2.78624e-16
-3.70551e-16
4.5308e-11
-2.9195e-16
3.42759e-16
4.53082e-11
1.90387e-16
-2.85144e-16
4.5308e-11
-2.0542e-16
2.68991e-16
4.53081e-11
1.55763e-16
-2.49892e-16
4.5308e-11
-1.61766e-16
2.41503e-16
1.37839e-16
-2.13651e-16
5.7143e-11
7.64809e-12
-1.92099e-11
5.93639e-11
7.92415e-13
-1.90257e-12
5.84209e-11
-3.26635e-13
7.96859e-13
5.8803e-11
1.26573e-13
-3.16591e-13
5.8627e-11
-5.87622e-14
1.45366e-13
5.87074e-11
2.67586e-14
-6.54519e-14
5.86711e-11
-1.20367e-14
2.90872e-14
5.86878e-11
5.69767e-15
-1.25821e-14
5.86808e-11
-2.45151e-15
5.41981e-15
5.8684e-11
1.15545e-15
-2.32701e-15