/*--------------------------------*- C++ -*----------------------------------*\
  =========                 |
  \\      /  F ield         | OpenFOAM: The Open Source CFD Toolbox
   \\    /   O peration     | Website:  https://openfoam.org
    \\  /    A nd           | Version:  13
     \\/     M anipulation  |
\*---------------------------------------------------------------------------*/
FoamFile
{
    format      ascii;
    class       surfaceScalarField;
    location    "31";
    object      phi;
}
// * * * * * * * * * * * * * * * * * * * * * * * * * * * * * * * * * * * * * //

dimensions      [0 3 -1 0 0 0 0];

internalField   nonuniform List<scalar> 
1275
(
3.20415e-10
1.73193e-10
1.73193e-10
2.67211e-10
2.66021e-11
2.66021e-11
2.69909e-10
-1.34915e-12
-1.34912e-12
2.73547e-10
-1.81906e-12
-1.81911e-12
2.73126e-10
2.10445e-13
2.10454e-13
2.73068e-10
2.89156e-14
2.89192e-14
2.73099e-10
-1.54369e-14
-1.54642e-14
2.73088e-10
5.22684e-15
5.2461e-15
2.73092e-10
-2.43437e-15
-2.56267e-15
2.73075e-10
6.49373e-15
6.39626e-15
2.73098e-10
-1.01932e-14
-9.83842e-15
2.73071e-10
1.14333e-14
1.10198e-14
2.73098e-10
-1.16156e-14
-1.10732e-14
2.73076e-10
9.69128e-15
9.28415e-15
2.73095e-10
-8.24444e-15
-7.73476e-15
2.73088e-10
3.61378e-15
3.43127e-15
2.7309e-10
-7.00453e-16
-7.62118e-16
2.7309e-10
1.31633e-16
2.1391e-16
2.73092e-10
-7.97173e-16
-8.14427e-16
9.34143e-16
1.03039e-15
5.17956e-10
7.60737e-11
2.45966e-10
4.85046e-10
1.36009e-11
4.59112e-11
4.85372e-10
-4.50617e-13
-1.22631e-12
4.88269e-10
-1.05986e-12
-3.65558e-12
4.88216e-10
7.41327e-14
1.87838e-13
4.88126e-10
2.18398e-14
9.69767e-14
4.88142e-10
-7.05324e-15
-2.39092e-14
4.88135e-10
2.21046e-15
7.63822e-15
4.88138e-10
-1.81373e-15
-4.74211e-15
4.88119e-10
5.42259e-16
1.38336e-14
4.88143e-10
-3.54778e-15
-2.10327e-14
4.88114e-10
2.57897e-15
2.39396e-14
4.88142e-10
-3.25624e-15
-2.40167e-14
4.88119e-10
2.46424e-15
2.04362e-14
4.8814e-10
-1.77766e-15
-1.70438e-14
4.88134e-10
1.77107e-15
7.75675e-15
4.88137e-10
2.40089e-16
-1.85978e-15
4.88137e-10
2.21562e-17
4.91466e-16
4.88139e-10
1.69627e-16
-1.83164e-15
2.90251e-16
2.1712e-15
5.65575e-10
-7.60731e-11
2.53374e-10
5.4511e-10
-1.36004e-11
4.76659e-11
5.45198e-10
4.4942e-13
-9.88905e-13
5.47201e-10
1.06077e-12
-4.1237e-12
5.47198e-10
-7.5369e-14
1.51943e-13
5.47125e-10
-2.15349e-14
1.15869e-13
5.47135e-10
6.99378e-15
-2.46557e-14
5.47131e-10
-3.37832e-15
8.72452e-15
5.47133e-10
7.48118e-16
-6.42761e-15
5.47114e-10
-6.95806e-15
1.63141e-14
5.47137e-10
9.69536e-15
-2.72975e-14
5.47108e-10
-1.21955e-14
3.04543e-14
5.47136e-10
1.20755e-14
-3.10254e-14
5.47113e-10
-1.06043e-14
2.66311e-14
5.47135e-10
9.7905e-15
-2.24117e-14
5.47129e-10
-4.04369e-15
1.15561e-14
5.47132e-10
1.4388e-15
-2.64283e-15
5.47132e-10
-4.20004e-16
8.45453e-16
5.47134e-10
1.37332e-15
-2.24336e-15
-1.13504e-15
2.95488e-15
5.17956e-10
-1.73192e-10
2.45966e-10
4.85046e-10
-2.66018e-11
4.59113e-11
4.85372e-10
1.34838e-12
-1.2265e-12
4.88269e-10
1.81947e-12
-3.65528e-12
4.88216e-10
-2.11074e-13
1.87281e-13
4.88126e-10
-2.8904e-14
9.7269e-14
4.88141e-10
1.53376e-14
-2.39845e-14
4.88135e-10
-5.93725e-15
7.31149e-15
4.88138e-10
1.91005e-15
-5.31757e-15
4.88119e-10
-1.04749e-14
1.21755e-14
4.88143e-10
1.42418e-14
-1.90181e-14
4.88114e-10
-1.72511e-14
2.10107e-14
4.88142e-10
1.73197e-14
-2.10693e-14
4.88119e-10
-1.44735e-14
1.781e-14
4.88141e-10
1.33499e-14
-1.4312e-14
4.88134e-10
-4.85071e-15
6.95832e-15
4.88137e-10
1.68301e-15
-1.5357e-15
4.88137e-10
-3.81807e-16
5.10483e-16
4.88139e-10
1.70654e-15
-1.38198e-15
-1.42145e-15
1.86798e-15
3.20415e-10
1.73193e-10
2.67211e-10
2.66022e-11
2.69909e-10
-1.34965e-12
2.73547e-10
-1.81881e-12
2.73126e-10
2.10012e-13
2.73068e-10
2.89659e-14
2.73099e-10
-1.55261e-14
2.73087e-10
4.81803e-15
2.73092e-10
-2.8845e-15
2.73075e-10
4.30221e-15
2.73098e-10
-7.21686e-15
2.73071e-10
7.63761e-15
2.73098e-10
-7.33396e-15
2.73076e-10
6.33468e-15
2.73095e-10
-4.31743e-15
2.73088e-10
2.40402e-15
2.7309e-10
-1.08068e-16
2.7309e-10
-4.5347e-17
2.73092e-10
-1.89956e-16
6.08377e-16
5.17956e-10
2.45966e-10
7.60737e-11
4.85046e-10
4.59112e-11
1.36009e-11
4.85372e-10
-1.22636e-12
-4.50535e-13
4.88269e-10
-3.65553e-12
-1.05995e-12
4.88216e-10
1.87811e-13
7.41694e-14
4.88126e-10
9.70009e-14
2.18224e-14
4.88142e-10
-2.39066e-14
-7.07309e-15
4.88135e-10
7.64788e-15
2.22001e-15
4.88138e-10
-4.74182e-15
-1.90937e-15
4.88119e-10
1.43462e-14
7.86755e-17
4.88143e-10
-2.18755e-14
-2.56637e-15
4.88114e-10
2.46598e-14
1.66127e-15
4.88142e-10
-2.50424e-14
-1.97648e-15
4.88119e-10
2.1092e-14
1.57546e-15
4.8814e-10
-1.79779e-14
-5.78104e-16
4.88134e-10
7.88775e-15
1.45394e-15
4.88137e-10
-1.84916e-15
2.0262e-16
4.88137e-10
5.45377e-16
3.44901e-17
4.88139e-10
-1.86869e-15
1.98333e-16
2.07837e-15
4.4092e-16
9.24113e-10
1.17311e-10
1.17311e-10
9.62903e-10
2.65168e-11
2.65167e-11
9.60581e-10
-6.72084e-14
-6.71196e-14
9.57754e-10
-2.24132e-12
-2.24138e-12
9.58171e-10
-2.20041e-14
-2.19881e-14
9.58226e-10
6.88688e-14
6.88648e-14
9.58192e-10
-7.1037e-15
-7.16706e-15
9.582e-10
1.77729e-15
1.82546e-15
9.5819e-10
-1.36349e-15
-1.56902e-15
9.58192e-10
-1.43323e-16
-1.99268e-16
9.58179e-10
-3.77439e-15
-3.66095e-15
9.5819e-10
2.39404e-15
2.41411e-15
9.58178e-10
-3.30481e-15
-3.04127e-15
9.5819e-10
2.63079e-15
2.75897e-15
9.58185e-10
-1.65285e-15
-1.46756e-15
9.58195e-10
2.04448e-15
2.42819e-15
9.58194e-10
6.92005e-16
3.9464e-16
9.58196e-10
-1.13454e-16
2.51738e-17
9.58196e-10
1.82118e-16
8.43575e-17
3.68996e-16
6.55126e-16
1.03188e-09
-1.1731e-10
1.22923e-10
1.10416e-09
-2.65159e-11
2.84169e-11
1.10284e-09
6.54384e-14
1.92201e-13
1.09679e-09
2.24196e-12
-2.55881e-12
1.09698e-09
2.14685e-14
-7.86222e-14
1.09715e-09
-6.94894e-14
8.15415e-14
1.09712e-09
7.25361e-15
-5.37738e-15
1.09712e-09
-3.52103e-15
2.01215e-15
1.09711e-09
3.54407e-16
-2.37928e-15
1.09712e-09
-9.96217e-15
-2.3897e-16
1.0971e-09
1.04662e-14
-5.02666e-15
1.09711e-09
-1.35803e-14
3.68998e-15
1.0971e-09
1.28952e-14
-4.37839e-15
1.09711e-09
-1.04248e-14
4.18391e-15
1.09711e-09
1.00518e-14
-2.31818e-15
1.09712e-09
-1.74194e-15
3.93475e-15
1.09712e-09
1.18241e-15
1.05248e-16
1.09712e-09
-2.46116e-16
2.86329e-16
1.09712e-09
1.56092e-15
8.50152e-17
-9.19299e-16
9.00366e-16
9.24113e-10
-2.45965e-10
1.17311e-10
9.62903e-10
-4.59106e-11
2.65171e-11
9.60581e-10
1.22509e-12
-6.71315e-14
9.57754e-10
3.656e-12
-2.24119e-12
9.58171e-10
-1.87997e-13
-2.22858e-14
9.58226e-10
-9.75721e-14
6.91711e-14
9.58192e-10
2.41169e-14
-7.15837e-15
9.582e-10
-8.80805e-15
1.70719e-15
9.58189e-10
4.3362e-15
-2.44336e-15
9.58192e-10
-2.06472e-14
5.99307e-16
9.58179e-10
2.63408e-14
-5.07759e-15
9.58189e-10
-3.16023e-14
3.95481e-15
9.58178e-10
3.13377e-14
-4.13729e-15
9.5819e-10
-2.60588e-14
4.11996e-15
9.58185e-10
2.37404e-14
-2.04707e-15
9.58196e-10
-8.19556e-15
3.35884e-15
9.58194e-10
3.43328e-15
1.79977e-16
9.58196e-10
-1.21585e-15
2.74885e-16
9.58196e-10
3.08724e-15
2.75622e-16
-2.58725e-15
3.92831e-16
5.17956e-10
7.60735e-11
4.85046e-10
1.36013e-11
4.85372e-10
-4.51175e-13
4.88269e-10
-1.05958e-12
4.88216e-10
7.43577e-14
4.88126e-10
2.14842e-14
4.88141e-10
-6.78965e-15
4.88135e-10
1.86342e-15
4.88138e-10
-1.49096e-15
4.88119e-10
-1.75473e-16
4.88143e-10
-1.9774e-15
4.88114e-10
1.43664e-15
4.88142e-10
-1.09627e-15
4.88119e-10
1.10788e-15
4.88141e-10
5.86423e-16
4.88134e-10
4.60686e-16
4.88137e-10
1.16074e-15
4.88137e-10
-9.64266e-16
4.88139e-10
6.2646e-16
3.85062e-17
5.65575e-10
2.53374e-10
-7.60731e-11
5.4511e-10
4.76659e-11
-1.36004e-11
5.45198e-10
-9.88919e-13
4.49431e-13
5.47201e-10
-4.12372e-12
1.06073e-12
5.47198e-10
1.51867e-13
-7.528e-14
5.47125e-10
1.1595e-13
-2.16246e-14
5.47135e-10
-2.46973e-14
7.0479e-15
5.47131e-10
8.77049e-15
-3.42997e-15
5.47133e-10
-6.61939e-15
9.31715e-16
5.47114e-10
1.65679e-14
-7.37896e-15
5.47137e-10
-2.74597e-14
1.03827e-14
5.47108e-10
3.06078e-14
-1.28668e-14
5.47136e-10
-3.12071e-14
1.2904e-14
5.47114e-10
2.67218e-14
-1.12677e-14
5.47135e-10
-2.25021e-14
1.05291e-14
5.47129e-10
1.15424e-14
-4.43889e-15
5.47132e-10
-2.74023e-15
1.64051e-15
5.47132e-10
1.03058e-15
-6.20251e-16
5.47134e-10
-2.27417e-15
1.46943e-15
2.90211e-15
-1.1253e-15
1.03188e-09
1.22923e-10
-1.1731e-10
1.10416e-09
2.8417e-11
-2.6516e-11
1.10284e-09
1.92075e-13
6.55423e-14
1.09679e-09
-2.55873e-12
2.2419e-12
1.09698e-09
-7.86461e-14
2.14202e-14
1.09715e-09
8.15591e-14
-6.94133e-14
1.09712e-09
-5.329e-15
7.1556e-15
1.09712e-09
1.99048e-15
-3.42469e-15
1.09711e-09
-2.26641e-15
1.69716e-17
1.09712e-09
1.84759e-16
-9.63386e-15
1.0971e-09
-5.64472e-15
1.0153e-14
1.09711e-09
4.08e-15
-1.30228e-14
1.0971e-09
-5.18564e-15
1.25931e-14
1.09711e-09
4.42891e-15
-9.84195e-15
1.09711e-09
-2.98844e-15
9.80183e-15
1.09712e-09
3.63048e-15
-1.18279e-15
1.09712e-09
3.4315e-16
7.56696e-16
1.09712e-09
2.37374e-16
3.43205e-17
1.09712e-09
1.35786e-16
1.4284e-15
6.24729e-16
-6.53843e-16
1.1585e-09
-1.22923e-10
-1.22923e-10
1.27216e-09
-2.84153e-11
-2.84153e-11
1.27293e-09
-1.94248e-13
-1.94144e-13
1.26269e-09
2.55978e-12
2.55972e-12
1.26238e-09
7.76901e-14
7.77132e-14
1.26271e-09
-8.19465e-14
-8.19571e-14
1.26268e-09
5.48175e-15
5.45044e-15
1.26269e-09
-4.17098e-15
-4.15059e-15
1.26268e-09
2.88232e-17
-4.37389e-17
1.26268e-09
-1.15016e-14
-1.1696e-14
1.26267e-09
1.18155e-14
1.21306e-14
1.26268e-09
-1.55377e-14
-1.56219e-14
1.26267e-09
1.49462e-14
1.5344e-14
1.26268e-09
-1.19674e-14
-1.19797e-14
1.26267e-09
1.20843e-14
1.24235e-14
1.26268e-09
-1.84489e-15
-1.58089e-15
1.26269e-09
1.52067e-15
1.33294e-15
1.26269e-09
-2.5145e-16
-2.17601e-16
1.26269e-09
2.05576e-15
2.02123e-15
-1.49352e-15
-1.28565e-15
1.03188e-09
-2.53373e-10
-1.1731e-10
1.10416e-09
-4.76657e-11
-2.6516e-11
1.10284e-09
9.88181e-13
6.58601e-14
1.09679e-09
4.12368e-12
2.24183e-12
1.09698e-09
-1.52708e-13
2.145e-14
1.09715e-09
-1.15905e-13
-6.93652e-14
1.09712e-09
2.42823e-14
7.14787e-15
1.09712e-09
-9.58878e-15
-3.41716e-15
1.09711e-09
4.6837e-15
5.31484e-17
1.09712e-09
-2.29752e-14
-9.38588e-15
1.0971e-09
3.1544e-14
9.82307e-15
1.09711e-09
-3.76867e-14
-1.25141e-14
1.0971e-09
3.72606e-14
1.22521e-14
1.09711e-09
-3.11216e-14
-9.36924e-15
1.09711e-09
2.76169e-14
9.55421e-15
1.09712e-09
-9.67042e-15
-9.47341e-16
1.09712e-09
2.54344e-15
7.5987e-16
1.09712e-09
2.64378e-16
5.16721e-17
1.09712e-09
3.06539e-15
1.37555e-15
-3.0051e-15
-7.82216e-16
5.65575e-10
-7.60731e-11
5.4511e-10
-1.36002e-11
5.45198e-10
4.49249e-13
5.47201e-10
1.06063e-12
5.47198e-10
-7.51433e-14
5.47125e-10
-2.17332e-14
5.47135e-10
7.03387e-15
5.47131e-10
-3.33119e-15
5.47133e-10
6.37609e-16
5.47114e-10
-6.6667e-15
5.47137e-10
9.13801e-15
5.47108e-10
-1.11295e-14
5.47136e-10
1.13391e-14
5.47114e-10
-9.50504e-15
5.47135e-10
9.23202e-15
5.47129e-10
-3.3202e-15
5.47132e-10
1.19135e-15
5.47132e-10
-3.4326e-16
5.47134e-10
1.32315e-15
-9.90865e-16
5.17956e-10
2.45966e-10
-1.73192e-10
4.85046e-10
4.59114e-11
-2.66018e-11
4.85372e-10
-1.22654e-12
1.34835e-12
4.88269e-10
-3.65527e-12
1.8195e-12
4.88216e-10
1.87354e-13
-2.11071e-13
4.88126e-10
9.72028e-14
-2.89143e-14
4.88141e-10
-2.39029e-14
1.53569e-14
4.88135e-10
7.25258e-15
-5.94482e-15
4.88138e-10
-5.04133e-15
1.95808e-15
4.88119e-10
1.2072e-14
-1.034e-14
4.88143e-10
-1.88155e-14
1.39962e-14
4.88114e-10
2.07231e-14
-1.70057e-14
4.88142e-10
-2.09074e-14
1.70031e-14
4.88119e-10
1.74264e-14
-1.42602e-14
4.88141e-10
-1.41348e-14
1.3075e-14
4.88134e-10
6.4484e-15
-4.83859e-15
4.88137e-10
-1.21914e-15
1.74511e-15
4.88137e-10
2.81188e-16
-4.33806e-16
4.88139e-10
-1.26768e-15
1.73223e-15
1.70568e-15
-1.46087e-15
9.24113e-10
1.1731e-10
-2.45965e-10
9.62903e-10
2.65172e-11
-4.59106e-11
9.60581e-10
-6.72155e-14
1.22509e-12
9.57754e-10
-2.24114e-12
3.65601e-12
9.58171e-10
-2.22721e-14
-1.88044e-13
9.58226e-10
6.91432e-14
-9.75206e-14
9.58192e-10
-7.07144e-15
2.40656e-14
9.582e-10
1.63304e-15
-8.7641e-15
9.58189e-10
-2.14054e-15
4.16053e-15
9.58192e-10
4.60685e-16
-2.02911e-14
9.58179e-10
-4.92947e-15
2.57799e-14
9.58189e-10
3.62152e-15
-3.10418e-14
9.58178e-10
-4.09224e-15
3.06909e-14
9.5819e-10
3.69482e-15
-2.54853e-14
9.58185e-10
-1.98527e-15
2.31469e-14
9.58196e-10
2.81006e-15
-7.8315e-15
9.58194e-10
5.5952e-16
3.22034e-15
9.58196e-10
6.11565e-17
-1.03554e-15
9.58196e-10
3.98081e-16
2.99084e-15
7.91218e-17
-2.52651e-15
1.03188e-09
-1.1731e-10
-2.53373e-10
1.10416e-09
-2.65159e-11
-4.76658e-11
1.10284e-09
6.57502e-14
9.88265e-13
1.09679e-09
2.2419e-12
4.12364e-12
1.09698e-09
2.14709e-14
-1.5271e-13
1.09715e-09
-6.94098e-14
-1.15894e-13
1.09712e-09
7.225e-15
2.42744e-14
1.09712e-09
-3.4881e-15
-9.59322e-15
1.09711e-09
3.03164e-16
4.72086e-15
1.09712e-09
-9.51026e-15
-2.32301e-14
1.0971e-09
9.87119e-15
3.19149e-14
1.09711e-09
-1.2761e-14
-3.79243e-14
1.0971e-09
1.22329e-14
3.7648e-14
1.09711e-09
-9.66716e-15
-3.13163e-14
1.09711e-09
9.54378e-15
2.79376e-14
1.09712e-09
-1.36528e-15
-9.59735e-15
1.09712e-09
1.10663e-15
2.47186e-15
1.09712e-09
-1.56426e-16
2.70658e-16
1.09712e-09
1.48545e-15
3.0527e-15
-1.02829e-15
-2.96551e-15
9.24113e-10
-2.45965e-10
-2.45965e-10
9.62903e-10
-4.59114e-11
-4.59114e-11
9.60581e-10
1.22616e-12
1.22617e-12
9.57754e-10
3.65533e-12
3.6553e-12
9.5817e-10
-1.87886e-13
-1.87836e-13
9.58226e-10
-9.73467e-14
-9.73831e-14
9.58192e-10
2.37434e-14
2.37627e-14
9.58199e-10
-8.15206e-15
-8.17207e-15
9.58189e-10
4.33735e-15
4.41409e-15
9.58191e-10
-1.82631e-14
-1.85588e-14
9.58178e-10
2.39205e-14
2.44488e-14
9.58189e-10
-2.84699e-14
-2.89568e-14
9.58178e-10
2.7926e-14
2.85476e-14
9.5819e-10
-2.30508e-14
-2.3533e-14
9.58185e-10
2.01354e-14
2.07162e-14
9.58196e-10
-6.65057e-15
-6.89712e-15
9.58194e-10
2.06266e-15
2.14171e-15
9.58196e-10
-1.0176e-16
-1.99568e-16
9.58196e-10
2.16542e-15
2.21434e-15
-2.12851e-15
-2.10943e-15
5.17956e-10
-1.73193e-10
4.85046e-10
-2.6602e-11
4.85372e-10
1.34888e-12
4.88269e-10
1.81915e-12
4.88216e-10
-2.10638e-13
4.88126e-10
-2.89713e-14
4.88141e-10
1.53954e-14
4.88135e-10
-5.52112e-15
4.88138e-10
2.19133e-15
4.88119e-10
-8.30579e-15
4.88143e-10
1.15811e-14
4.88114e-10
-1.36799e-14
4.88142e-10
1.35705e-14
4.88119e-10
-1.13293e-14
4.88141e-10
9.94816e-15
4.88134e-10
-3.72026e-15
4.88137e-10
1.02674e-15
4.88137e-10
-1.32394e-16
4.88139e-10
1.11889e-15
-1.07195e-15
3.20415e-10
1.73193e-10
2.67211e-10
2.66023e-11
2.69909e-10
-1.3497e-12
2.73547e-10
-1.81876e-12
2.73126e-10
2.10008e-13
2.73068e-10
2.89579e-14
2.73099e-10
-1.54988e-14
2.73087e-10
4.8031e-15
2.73092e-10
-2.80877e-15
2.73075e-10
4.46033e-15
2.73098e-10
-7.53485e-15
2.73071e-10
7.9119e-15
2.73098e-10
-7.75288e-15
2.73076e-10
6.56896e-15
2.73095e-10
-4.68673e-15
2.73088e-10
2.38646e-15
2.7309e-10
-5.21789e-18
2.7309e-10
-1.11422e-16
2.73092e-10
-1.57597e-16
5.18354e-16
5.17956e-10
7.60735e-11
4.85046e-10
1.36014e-11
4.85372e-10
-4.51247e-13
4.88269e-10
-1.05951e-12
4.88216e-10
7.43005e-14
4.88126e-10
2.15293e-14
4.88141e-10
-6.80923e-15
4.88135e-10
1.88893e-15
4.88138e-10
-1.57602e-15
4.88119e-10
3.2569e-16
4.88143e-10
-2.8746e-15
4.88114e-10
2.24835e-15
4.88142e-10
-2.18649e-15
4.88119e-10
1.89645e-15
4.88141e-10
-4.0452e-16
4.88134e-10
7.86792e-16
4.88137e-10
1.08431e-15
4.88137e-10
-8.6022e-16
4.88139e-10
5.65994e-16
-2.88291e-17
5.65575e-10
-7.60731e-11
5.4511e-10
-1.36003e-11
5.45198e-10
4.49256e-13
5.47201e-10
1.06066e-12
5.47198e-10
-7.5206e-14
5.47125e-10
-2.16774e-14
5.47135e-10
7.00745e-15
5.47131e-10
-3.31118e-15
5.47133e-10
5.997e-16
5.47114e-10
-6.43086e-15
5.47137e-10
8.60473e-15
5.47108e-10
-1.05612e-14
5.47136e-10
1.06291e-14
5.47114e-10
-8.91272e-15
5.47135e-10
8.54777e-15
5.47129e-10
-2.91545e-15
5.47132e-10
1.05579e-15
5.47132e-10
-2.3636e-16
5.47134e-10
1.24818e-15
-1.02964e-15
5.17956e-10
-1.73193e-10
4.85046e-10
-2.6602e-11
4.85372e-10
1.34891e-12
4.88269e-10
1.81916e-12
4.88216e-10
-2.10652e-13
4.88126e-10
-2.89514e-14
4.88141e-10
1.53883e-14
4.88135e-10
-5.522e-15
4.88138e-10
2.2355e-15
4.88119e-10
-8.37187e-15
4.88143e-10
1.15763e-14
4.88114e-10
-1.35992e-14
4.88142e-10
1.3481e-14
4.88119e-10
-1.12179e-14
4.88141e-10
9.83925e-15
4.88134e-10
-3.55454e-15
4.88137e-10
9.71218e-16
4.88137e-10
-1.23592e-16
4.88139e-10
1.09078e-15
-1.09264e-15
3.20415e-10
2.67211e-10
2.69909e-10
2.73547e-10
2.73126e-10
2.73068e-10
2.73098e-10
2.73087e-10
2.73092e-10
2.73075e-10
2.73098e-10
2.73071e-10
2.73098e-10
2.73076e-10
2.73095e-10
2.73088e-10
2.7309e-10
2.7309e-10
2.73092e-10
)
;

boundaryField
{
    inlet
    {
        type            calculated;
        value           nonuniform List<scalar> 
25
(
-6.668e-10
-6.668e-10
-6.668e-10
-6.668e-10
-6.668e-10
-6.668e-10
-6.668e-10
-6.668e-10
-6.668e-10
-6.668e-10
-6.668e-10
-6.668e-10
-6.668e-10
-6.668e-10
-6.668e-10
-6.668e-10
-6.668e-10
-6.668e-10
-6.668e-10
-6.668e-10
-6.668e-10
-6.668e-10
-6.668e-10
-6.668e-10
-6.668e-10
)
;
    }
    outlet
    {
        type            calculated;
        value           nonuniform List<scalar> 
25
(
2.7309e-10
4.88137e-10
5.47132e-10
4.88137e-10
2.7309e-10
4.88137e-10
9.58198e-10
1.09712e-09
9.58198e-10
4.88137e-10
5.47132e-10
1.09712e-09
1.26269e-09
1.09712e-09
5.47132e-10
4.88137e-10
9.58198e-10
1.09712e-09
9.58198e-10
4.88137e-10
2.7309e-10
4.88137e-10
5.47132e-10
4.88137e-10
2.7309e-10
)
;
    }
    Walls
    {
        type            calculated;
        value           uniform 0;
    }
}


// ************************************************************************* //
