/*--------------------------------*- C++ -*----------------------------------*\
  =========                 |
  \\      /  F ield         | OpenFOAM: The Open Source CFD Toolbox
   \\    /   O peration     | Website:  https://openfoam.org
    \\  /    A nd           | Version:  13
     \\/     M anipulation  |
\*---------------------------------------------------------------------------*/
FoamFile
{
    format      ascii;
    class       volVectorField;
    location    "31";
    object      U;
}
// * * * * * * * * * * * * * * * * * * * * * * * * * * * * * * * * * * * * * //

dimensions      [0 1 -1 0 0 0 0];

internalField   nonuniform List<vector> 
500
(
(0.580057 0.00502569 0.00502569)
(0.761173 0.000956646 0.000956646)
(0.663336 -0.000141433 -0.000141432)
(0.6788 -3.47541e-05 -3.47554e-05)
(0.684495 1.21016e-05 1.21019e-05)
(0.682548 -1.13123e-06 -1.13105e-06)
(0.682689 -3.50933e-07 -3.51808e-07)
(0.682745 2.29021e-07 2.29712e-07)
(0.682727 -1.33172e-07 -1.37442e-07)
(0.682702 2.31368e-07 2.32511e-07)
(0.682722 -3.5949e-07 -3.55451e-07)
(0.682709 4.03685e-07 3.96471e-07)
(0.682712 -4.0776e-07 -3.98859e-07)
(0.682718 3.53373e-07 3.46053e-07)
(0.68271 -2.84268e-07 -2.75827e-07)
(0.682733 1.47579e-07 1.43256e-07)
(0.682722 -3.87167e-08 -4.08512e-08)
(0.682724 1.43969e-08 1.74955e-08)
(0.682728 -2.88618e-08 -2.98622e-08)
(0.682727 3.37444e-08 3.65726e-08)
(0.958701 0.00720225 0.00707059)
(1.32464 0.00138329 0.00179309)
(1.20452 -1.67749e-05 -0.000206731)
(1.21362 -0.000102852 -9.32981e-05)
(1.2225 3.67517e-06 1.95668e-05)
(1.22024 2.84503e-06 6.25712e-08)
(1.22027 -6.35918e-07 -9.60494e-07)
(1.22037 1.87408e-07 5.05389e-07)
(1.22035 -1.07968e-07 -3.00479e-07)
(1.22031 2.6807e-07 9.14916e-07)
(1.22034 -4.7877e-07 -1.33793e-06)
(1.22032 5.00047e-07 1.52346e-06)
(1.22032 -5.20457e-07 -1.50904e-06)
(1.22033 4.25241e-07 1.3466e-06)
(1.22032 -3.66844e-07 -1.15788e-06)
(1.22035 1.6988e-07 5.25374e-07)
(1.22034 -1.54455e-08 -1.54724e-07)
(1.22034 3.98829e-09 5.97909e-08)
(1.22035 -3.13079e-08 -1.56591e-07)
(1.22035 4.30491e-08 1.27901e-07)
(1.04879 1.76906e-08 0.00685981)
(1.47269 1.49261e-08 0.00184822)
(1.35639 -3.78497e-08 -0.000214199)
(1.36092 2.85248e-08 -0.000106064)
(1.36989 -3.55743e-08 2.07304e-05)
(1.36775 8.1425e-09 4.88067e-07)
(1.36775 -4.71154e-10 -1.09984e-06)
(1.36785 -3.34137e-08 5.65424e-07)
(1.36784 -3.04991e-08 -3.71206e-07)
(1.3678 -1.83014e-07 1.00232e-06)
(1.36782 1.72632e-07 -1.58368e-06)
(1.3678 -2.7087e-07 1.77041e-06)
(1.36781 2.45074e-07 -1.7815e-06)
(1.36781 -2.29058e-07 1.57879e-06)
(1.36781 2.23659e-07 -1.37257e-06)
(1.36783 -6.26449e-08 6.72406e-07)
(1.36783 4.66284e-08 -1.81856e-07)
(1.36783 -1.13581e-08 6.85658e-08)
(1.36783 4.46162e-08 -1.58731e-07)
(1.36783 -2.3585e-08 1.52223e-07)
(0.958701 -0.00720222 0.00707059)
(1.32464 -0.00138327 0.00179313)
(1.20452 1.67231e-05 -0.000206769)
(1.21362 0.000102886 -9.32686e-05)
(1.2225 -3.72371e-06 1.95343e-05)
(1.22024 -2.83746e-06 6.68946e-08)
(1.22027 6.3165e-07 -9.51065e-07)
(1.22037 -2.37507e-07 4.74511e-07)
(1.22035 6.64575e-08 -3.18393e-07)
(1.22031 -5.44971e-07 7.75434e-07)
(1.22034 7.4869e-07 -1.17439e-06)
(1.22032 -9.08095e-07 1.30542e-06)
(1.22032 9.05208e-07 -1.30522e-06)
(1.22033 -7.65209e-07 1.14262e-06)
(1.22032 7.14132e-07 -9.58207e-07)
(1.22035 -2.60575e-07 4.41828e-07)
(1.22034 8.63305e-08 -1.09896e-07)
(1.22034 -2.15621e-08 3.17928e-08)
(1.22035 9.61348e-08 -1.05642e-07)
(1.22035 -7.84243e-08 1.01286e-07)
(0.580057 -0.00502567 0.0050257)
(0.761173 -0.000956643 0.000956652)
(0.663336 0.000141421 -0.000141451)
(0.6788 3.47597e-05 -3.47452e-05)
(0.684495 -1.2117e-05 1.20856e-05)
(0.682547 1.13228e-06 -1.12735e-06)
(0.682689 3.45653e-07 -3.54476e-07)
(0.682744 -2.45212e-07 2.18446e-07)
(0.682727 1.20395e-07 -1.50531e-07)
(0.682702 -3.28298e-07 1.77288e-07)
(0.682722 4.61221e-07 -2.81816e-07)
(0.682708 -5.48836e-07 3.02951e-07)
(0.682712 5.54266e-07 -2.95254e-07)
(0.682718 -4.71254e-07 2.63701e-07)
(0.682711 4.12627e-07 -1.81134e-07)
(0.682733 -1.76542e-07 1.15883e-07)
(0.682722 6.1773e-08 -2.69567e-08)
(0.682724 -1.78584e-08 1.38423e-08)
(0.682728 4.91866e-08 -1.12031e-08)
(0.682727 -4.50727e-08 2.44644e-08)
(0.958701 0.00707059 0.00720225)
(1.32464 0.0017931 0.00138329)
(1.20452 -0.000206733 -1.67711e-05)
(1.21362 -9.3296e-05 -0.000102857)
(1.2225 1.95668e-05 3.67569e-06)
(1.22024 6.20959e-08 2.84527e-06)
(1.22027 -9.58975e-07 -6.37733e-07)
(1.22037 5.04298e-07 1.88605e-07)
(1.22035 -2.93765e-07 -1.16231e-07)
(1.22031 9.17032e-07 2.51265e-07)
(1.22034 -1.34831e-06 -4.38898e-07)
(1.22032 1.5359e-06 4.61701e-07)
(1.22032 -1.52659e-06 -4.66656e-07)
(1.22033 1.35805e-06 3.88381e-07)
(1.22032 -1.17425e-06 -3.1615e-07)
(1.22035 5.28474e-07 1.57858e-07)
(1.22034 -1.50352e-07 -2.00655e-08)
(1.22034 5.53126e-08 8.07087e-09)
(1.22035 -1.55248e-07 -3.11238e-08)
(1.22035 1.23037e-07 5.04882e-08)
(1.7241 0.010993 0.010993)
(2.53075 0.00278544 0.00278544)
(2.40702 3.80635e-05 3.80675e-05)
(2.38546 -0.00021872 -0.000218723)
(2.39717 -9.15165e-06 -9.14995e-06)
(2.39562 7.82294e-06 7.82084e-06)
(2.39537 -4.94804e-07 -4.95096e-07)
(2.39552 9.90261e-08 9.8517e-08)
(2.3955 -1.23071e-07 -1.22902e-07)
(2.39546 1.64204e-07 1.34868e-07)
(2.39547 -3.90646e-07 -3.48143e-07)
(2.39545 3.45804e-07 3.14035e-07)
(2.39546 -3.86235e-07 -3.34962e-07)
(2.39546 2.56527e-07 2.30599e-07)
(2.39546 -1.86796e-07 -1.41982e-07)
(2.39548 9.34973e-08 9.7124e-08)
(2.39549 4.50299e-08 4.12775e-08)
(2.39549 -1.3238e-08 -1.67649e-08)
(2.39549 1.34229e-08 1.49159e-08)
(2.39549 3.81751e-08 4.65205e-08)
(1.9219 2.51823e-08 0.0116012)
(2.87284 3.0738e-08 0.00306112)
(2.76988 -5.26028e-08 6.83017e-05)
(2.73403 2.34413e-08 -0.000251124)
(2.74388 -9.24201e-09 -1.57228e-05)
(2.74293 -2.53795e-08 9.16864e-06)
(2.74268 9.77586e-09 -2.66358e-07)
(2.74283 -5.44443e-08 1.13163e-07)
(2.74281 -1.66034e-08 -1.60579e-07)
(2.74277 -3.03858e-07 2.49364e-07)
(2.74278 2.00146e-07 -5.67398e-07)
(2.74276 -3.30055e-07 5.48726e-07)
(2.74277 2.80257e-07 -5.60231e-07)
(2.74276 -2.35166e-07 4.40694e-07)
(2.74277 2.51303e-07 -2.95182e-07)
(2.74278 -6.49292e-09 1.8139e-07)
(2.7428 6.96344e-08 4.79845e-08)
(2.7428 -2.74952e-08 -2.63902e-08)
(2.7428 5.39032e-08 -1.3676e-08)
(2.7428 -1.7677e-08 7.43613e-08)
(1.7241 -0.010993 0.010993)
(2.53075 -0.00278538 0.00278543)
(2.40702 -3.8166e-05 3.80859e-05)
(2.38546 0.00021876 -0.000218723)
(2.39717 9.11641e-06 -9.14783e-06)
(2.39562 -7.84729e-06 7.82808e-06)
(2.39537 5.13208e-07 -5.00661e-07)
(2.39552 -1.86559e-07 9.99798e-08)
(2.3955 6.33941e-08 -1.42735e-07)
(2.39546 -6.45757e-07 1.79255e-07)
(2.39547 7.23119e-07 -4.12471e-07)
(2.39545 -8.89554e-07 3.89909e-07)
(2.39546 8.41962e-07 -3.80913e-07)
(2.39546 -6.53895e-07 3.0401e-07)
(2.39547 6.04834e-07 -1.78265e-07)
(2.39548 -1.06222e-07 1.39131e-07)
(2.39549 4.92254e-08 3.01563e-08)
(2.39549 -1.32415e-08 -6.08851e-09)
(2.39549 8.77079e-08 8.71772e-10)
(2.39549 -7.39408e-08 4.54822e-08)
(0.958702 -0.00707056 0.00720225)
(1.32464 -0.00179311 0.00138331)
(1.20452 0.000206724 -1.68069e-05)
(1.21362 9.32933e-05 -0.000102833)
(1.2225 -1.9578e-05 3.66821e-06)
(1.22024 -6.56727e-08 2.83468e-06)
(1.22027 9.41793e-07 -6.29216e-07)
(1.22037 -5.1912e-07 1.62124e-07)
(1.22035 2.76073e-07 -1.08863e-07)
(1.22031 -1.03309e-06 1.64655e-07)
(1.22034 1.44045e-06 -3.27846e-07)
(1.22031 -1.678e-06 3.32539e-07)
(1.22032 1.68524e-06 -3.12516e-07)
(1.22033 -1.44255e-06 2.67925e-07)
(1.22032 1.29871e-06 -1.64768e-07)
(1.22035 -5.06005e-07 8.93233e-08)
(1.22034 1.65011e-07 3.43977e-08)
(1.22034 -4.08204e-08 -3.46562e-08)
(1.22035 1.6481e-07 3.00441e-09)
(1.22035 -1.29269e-07 2.4449e-08)
(1.04879 0.00685981 1.77332e-08)
(1.47269 0.00184822 1.61593e-08)
(1.35639 -0.000214199 -3.53284e-08)
(1.36092 -0.000106066 2.50072e-08)
(1.36989 2.0727e-05 -3.16606e-08)
(1.36775 4.90959e-07 4.81331e-09)
(1.36775 -1.09963e-06 9.44629e-10)
(1.36785 5.64953e-07 -3.50693e-08)
(1.36784 -3.68058e-07 -2.56453e-08)
(1.3678 9.67125e-07 -2.1295e-07)
(1.36782 -1.52241e-06 2.2641e-07)
(1.3678 1.72437e-06 -3.21191e-07)
(1.36781 -1.71883e-06 3.11124e-07)
(1.36781 1.53231e-06 -2.78091e-07)
(1.36781 -1.31071e-06 2.84312e-07)
(1.36783 6.57638e-07 -8.48402e-08)
(1.36783 -1.77213e-07 5.2987e-08)
(1.36783 6.48004e-08 -1.86964e-08)
(1.36783 -1.52981e-07 4.88978e-08)
(1.36783 1.44198e-07 -2.00781e-08)
(1.9219 0.0116012 2.6421e-08)
(2.87284 0.00306112 2.85902e-08)
(2.76988 6.82964e-05 -4.67721e-08)
(2.73403 -0.00025112 1.97047e-08)
(2.74388 -1.57213e-05 -1.03329e-08)
(2.74293 9.16772e-06 -2.28695e-08)
(2.74268 -2.64437e-07 4.92557e-09)
(2.74283 1.12887e-07 -5.00045e-08)
(2.74281 -1.58218e-07 -3.26608e-08)
(2.74277 2.97776e-07 -3.00685e-07)
(2.74278 -6.43507e-07 2.01561e-07)
(2.74276 6.05312e-07 -3.1703e-07)
(2.74277 -6.47432e-07 2.86497e-07)
(2.74276 4.90046e-07 -2.17708e-07)
(2.74277 -3.74584e-07 2.5694e-07)
(2.74278 1.79979e-07 2.28187e-08)
(2.7428 5.3876e-08 4.77905e-08)
(2.7428 -2.42553e-08 -1.53379e-08)
(2.7428 -1.63714e-08 4.70079e-08)
(2.7428 6.73435e-08 -1.98027e-09)
(2.1521 1.60112e-08 1.64186e-08)
(3.27719 5.24325e-08 5.12329e-08)
(3.20401 -6.63932e-08 -5.90919e-08)
(3.15049 3.18101e-08 2.79058e-08)
(3.157 -2.66382e-08 -2.34358e-08)
(3.15679 -1.01155e-08 -1.26629e-08)
(3.1566 3.42488e-09 3.15456e-09)
(3.15674 -6.15298e-08 -6.22086e-08)
(3.15673 -7.06901e-08 -6.72121e-08)
(3.15669 -3.2752e-07 -3.61715e-07)
(3.15669 1.72392e-07 2.19737e-07)
(3.15667 -3.27811e-07 -3.57602e-07)
(3.15668 2.71653e-07 3.26543e-07)
(3.15668 -2.15143e-07 -2.37948e-07)
(3.15669 2.57343e-07 3.04532e-07)
(3.1567 5.82758e-08 6.88282e-08)
(3.15672 4.70652e-08 4.11357e-08)
(3.15671 4.39052e-09 -6.61088e-10)
(3.15672 5.91334e-08 5.92562e-08)
(3.15672 -2.195e-08 -1.10596e-08)
(1.9219 -0.0116012 9.77549e-09)
(2.87284 -0.00306105 3.39108e-08)
(2.76988 -6.83947e-05 -3.76503e-08)
(2.73403 0.000251176 2.30023e-08)
(2.74388 1.57027e-05 -2.01963e-08)
(2.74293 -9.22132e-06 -8.2844e-09)
(2.74268 2.95931e-07 1.22003e-09)
(2.74283 -2.30698e-07 -5.02695e-08)
(2.74281 1.29338e-07 -6.00546e-08)
(2.74277 -9.06748e-07 -2.68306e-07)
(2.74278 1.05793e-06 1.563e-07)
(2.74276 -1.26205e-06 -2.66328e-07)
(2.74277 1.21269e-06 2.52423e-07)
(2.74276 -9.72694e-07 -1.71888e-07)
(2.74277 9.06787e-07 2.3614e-07)
(2.74278 -2.18784e-07 5.71316e-08)
(2.7428 1.07216e-07 3.47453e-08)
(2.7428 -5.32997e-08 1.19368e-09)
(2.7428 1.37381e-07 4.64142e-08)
(2.7428 -1.1629e-07 -1.24004e-08)
(1.04879 -0.00685975 7.3744e-09)
(1.47269 -0.00184824 3.51483e-08)
(1.35639 0.000214202 -5.28442e-08)
(1.36092 0.000106039 3.09113e-08)
(1.36989 -2.07882e-05 -1.94518e-08)
(1.36775 -4.44779e-07 -9.86038e-09)
(1.36775 1.04871e-06 9.37261e-09)
(1.36785 -5.53398e-07 -4.27931e-08)
(1.36784 2.4664e-07 -1.84594e-08)
(1.3678 -1.01992e-06 -2.00369e-07)
(1.36782 1.53454e-06 2.07148e-07)
(1.3678 -1.79841e-06 -2.77061e-07)
(1.36781 1.79879e-06 2.92206e-07)
(1.36781 -1.52885e-06 -2.40993e-07)
(1.36781 1.3424e-06 2.82502e-07)
(1.36783 -5.04191e-07 -8.46257e-08)
(1.36783 7.70626e-08 7.23896e-08)
(1.36783 6.76276e-08 -4.36611e-08)
(1.36783 1.468e-07 5.58112e-08)
(1.36783 -1.34754e-07 -2.71917e-08)
(0.958701 0.00707059 -0.00720222)
(1.32464 0.00179314 -0.00138327)
(1.20452 -0.000206773 1.6722e-05)
(1.21362 -9.32669e-05 0.000102887)
(1.2225 1.95409e-05 -3.72078e-06)
(1.22024 6.05569e-08 -2.84055e-06)
(1.22027 -9.42839e-07 6.33917e-07)
(1.22037 4.6672e-07 -2.39313e-07)
(1.22035 -2.83989e-07 7.38006e-08)
(1.22031 7.11176e-07 -5.4865e-07)
(1.22034 -1.07845e-06 7.5317e-07)
(1.22032 1.21575e-06 -9.13894e-07)
(1.22032 -1.20639e-06 9.10307e-07)
(1.22033 1.05054e-06 -7.72131e-07)
(1.22032 -8.65614e-07 7.18261e-07)
(1.22035 3.85028e-07 -2.70554e-07)
(1.22034 -7.50521e-08 9.4159e-08)
(1.22034 2.06885e-10 -2.87643e-08)
(1.22035 -9.02365e-08 9.9124e-08)
(1.22035 8.36158e-08 -7.95703e-08)
(1.7241 0.010993 -0.010993)
(2.53075 0.00278543 -0.00278537)
(2.40702 3.80856e-05 -3.81653e-05)
(2.38546 -0.000218723 0.000218758)
(2.39717 -9.15034e-06 9.12022e-06)
(2.39562 7.83089e-06 -7.84941e-06)
(2.39537 -5.0246e-07 5.1518e-07)
(2.39552 1.03021e-07 -1.89331e-07)
(2.3955 -1.54315e-07 7.7156e-08)
(2.39546 2.33498e-07 -6.88039e-07)
(2.39547 -4.92558e-07 7.93362e-07)
(2.39545 4.58074e-07 -9.51578e-07)
(2.39546 -4.71442e-07 9.18073e-07)
(2.39546 3.66831e-07 -7.1514e-07)
(2.39547 -2.60214e-07 6.75227e-07)
(2.39548 1.57434e-07 -1.3449e-07)
(2.39549 2.05125e-08 5.96095e-08)
(2.39549 8.31717e-09 -2.58278e-08)
(2.39549 -5.82387e-09 9.32352e-08)
(2.39549 4.51114e-08 -7.69505e-08)
(1.9219 8.55161e-09 -0.0116011)
(2.87284 3.61517e-08 -0.00306104)
(2.76988 -4.35138e-08 -6.83944e-05)
(2.73403 2.67535e-08 0.000251174)
(2.74388 -1.90551e-08 1.57078e-05)
(2.74293 -1.08134e-08 -9.22516e-06)
(2.74268 6.12483e-09 2.97889e-07)
(2.74283 -5.47327e-08 -2.33317e-07)
(2.74281 -4.37807e-08 1.39847e-07)
(2.74277 -2.71394e-07 -9.40159e-07)
(2.74278 1.5491e-07 1.11007e-06)
(2.74276 -2.79482e-07 -1.30785e-06)
(2.74277 2.46043e-07 1.27085e-06)
(2.74276 -1.89622e-07 -1.01641e-06)
(2.74277 2.3033e-07 9.60139e-07)
(2.74278 2.73686e-08 -2.37576e-07)
(2.7428 5.66763e-08 1.14896e-07)
(2.7428 -1.10574e-08 -6.48429e-08)
(2.7428 5.33689e-08 1.4198e-07)
(2.7428 -2.82537e-08 -1.14937e-07)
(1.7241 -0.010993 -0.010993)
(2.53075 -0.00278538 -0.00278538)
(2.40702 -3.81455e-05 -3.8142e-05)
(2.38546 0.000218759 0.000218757)
(2.39717 9.13565e-06 9.13827e-06)
(2.39562 -7.87396e-06 -7.87508e-06)
(2.39537 5.2966e-07 5.29455e-07)
(2.39552 -1.99767e-07 -1.99894e-07)
(2.3955 1.19571e-07 1.21734e-07)
(2.39546 -7.06988e-07 -7.21921e-07)
(2.39547 8.08602e-07 8.36353e-07)
(2.39545 -9.60878e-07 -9.82204e-07)
(2.39546 9.22368e-07 9.54207e-07)
(2.39546 -7.3289e-07 -7.52753e-07)
(2.39547 6.94037e-07 7.22763e-07)
(2.39548 -1.85249e-07 -1.90352e-07)
(2.39549 1.15527e-07 1.13335e-07)
(2.39549 -7.57587e-08 -7.79712e-08)
(2.39549 1.03553e-07 1.03914e-07)
(2.39549 -8.54164e-08 -8.06193e-08)
(0.958702 -0.00707054 -0.00720222)
(1.32464 -0.00179315 -0.00138327)
(1.20452 0.000206768 1.6737e-05)
(1.21362 9.32508e-05 0.000102868)
(1.2225 -1.95903e-05 -3.7062e-06)
(1.22024 -2.53759e-08 -2.84068e-06)
(1.22027 9.05416e-07 6.31171e-07)
(1.22037 -4.67038e-07 -2.19172e-07)
(1.22035 2.14176e-07 6.55228e-08)
(1.22031 -8.06751e-07 -4.51201e-07)
(1.22034 1.1709e-06 6.30176e-07)
(1.22031 -1.37427e-06 -7.47294e-07)
(1.22032 1.3614e-06 7.45564e-07)
(1.22033 -1.14251e-06 -6.18569e-07)
(1.22032 9.63845e-07 5.69506e-07)
(1.22035 -3.1855e-07 -1.94777e-07)
(1.22034 1.99037e-08 4.88296e-08)
(1.22034 8.59902e-08 -1.32078e-09)
(1.22035 9.83275e-08 7.2801e-08)
(1.22035 -9.28388e-08 -6.12427e-08)
(0.580057 0.0050257 -0.00502567)
(0.761173 0.000956653 -0.000956644)
(0.663336 -0.000141453 0.00014142)
(0.6788 -3.47438e-05 3.47606e-05)
(0.684495 1.20859e-05 -1.21178e-05)
(0.682547 -1.12797e-06 1.13271e-06)
(0.682689 -3.53123e-07 3.45536e-07)
(0.682745 2.17424e-07 -2.44686e-07)
(0.682727 -1.45756e-07 1.18662e-07)
(0.682702 1.75813e-07 -3.17877e-07)
(0.682722 -2.81887e-07 4.44433e-07)
(0.682709 3.0275e-07 -5.32419e-07)
(0.682712 -2.97793e-07 5.3477e-07)
(0.682718 2.62361e-07 -4.55909e-07)
(0.682711 -1.82971e-07 3.95299e-07)
(0.682733 1.11236e-07 -1.71163e-07)
(0.682722 -2.16272e-08 6.09085e-08)
(0.682724 9.59251e-09 -1.6616e-08)
(0.682728 -9.10352e-09 4.8787e-08)
(0.682727 2.06974e-08 -4.5231e-08)
(0.958702 0.00720225 -0.00707056)
(1.32464 0.00138331 -0.00179312)
(1.20452 -1.68109e-05 0.000206724)
(1.21362 -0.00010283 9.3295e-05)
(1.2225 3.66716e-06 -1.95845e-05)
(1.22024 2.83519e-06 -5.99787e-08)
(1.22027 -6.28621e-07 9.35584e-07)
(1.22037 1.62141e-07 -5.12174e-07)
(1.22035 -1.08002e-07 2.46979e-07)
(1.22031 1.81146e-07 -9.53951e-07)
(1.22034 -3.58094e-07 1.31851e-06)
(1.22031 3.58703e-07 -1.56503e-06)
(1.22032 -3.50222e-07 1.55279e-06)
(1.22033 2.92011e-07 -1.33123e-06)
(1.22032 -1.98337e-07 1.17681e-06)
(1.22035 9.42443e-08 -4.51428e-07)
(1.22034 3.69662e-08 1.37475e-07)
(1.22034 -3.50599e-08 -1.38462e-08)
(1.22035 2.91361e-09 1.51706e-07)
(1.22035 1.96276e-08 -1.1767e-07)
(1.04879 7.67565e-09 -0.00685976)
(1.47269 3.352e-08 -0.00184826)
(1.35639 -5.46008e-08 0.000214206)
(1.36092 3.36754e-08 0.000106038)
(1.36989 -2.32364e-08 -2.07935e-05)
(1.36775 -6.69142e-09 -4.40221e-07)
(1.36775 7.63057e-09 1.04475e-06)
(1.36785 -4.1051e-08 -5.49276e-07)
(1.36784 -2.42393e-08 2.30145e-07)
(1.3678 -1.74539e-07 -9.83634e-07)
(1.36782 1.598e-07 1.48132e-06)
(1.3678 -2.32275e-07 -1.74602e-06)
(1.36781 2.34399e-07 1.74189e-06)
(1.36781 -1.96392e-07 -1.47675e-06)
(1.36781 2.2886e-07 1.2888e-06)
(1.36783 -6.16636e-08 -4.73562e-07)
(1.36783 6.4709e-08 5.9311e-08)
(1.36783 -3.57361e-08 8.45784e-08)
(1.36783 5.12573e-08 1.39338e-07)
(1.36783 -2.92282e-08 -1.27598e-07)
(0.958702 -0.00720222 -0.00707054)
(1.32464 -0.00138328 -0.00179315)
(1.20452 1.67384e-05 0.000206768)
(1.21362 0.000102869 9.32508e-05)
(1.2225 -3.70853e-06 -1.95902e-05)
(1.22024 -2.83839e-06 -2.57712e-08)
(1.22027 6.30139e-07 9.0536e-07)
(1.22037 -2.18602e-07 -4.66639e-07)
(1.22035 6.56844e-08 2.11115e-07)
(1.22031 -4.47804e-07 -8.00239e-07)
(1.22034 6.1707e-07 1.16488e-06)
(1.22031 -7.30265e-07 -1.37153e-06)
(1.22032 7.25472e-07 1.35782e-06)
(1.22033 -5.9979e-07 -1.141e-06)
(1.22032 5.49164e-07 9.61587e-07)
(1.22035 -1.77992e-07 -3.22138e-07)
(1.22034 4.30171e-08 2.07036e-08)
(1.22034 2.14942e-09 8.68724e-08)
(1.22035 6.97612e-08 9.87995e-08)
(1.22035 -6.26732e-08 -9.16435e-08)
(0.580057 -0.00502567 -0.00502567)
(0.761173 -0.00095665 -0.000956651)
(0.663336 0.000141432 0.000141431)
(0.6788 3.47515e-05 3.47516e-05)
(0.684495 -1.21064e-05 -1.21066e-05)
(0.682547 1.13258e-06 1.13237e-06)
(0.682689 3.45934e-07 3.45892e-07)
(0.682744 -2.32821e-07 -2.32505e-07)
(0.682727 1.25958e-07 1.23466e-07)
(0.682701 -2.69722e-07 -2.64218e-07)
(0.682723 3.84294e-07 3.78811e-07)
(0.682708 -4.47065e-07 -4.44348e-07)
(0.682713 4.44776e-07 4.41152e-07)
(0.682717 -3.7803e-07 -3.76377e-07)
(0.682711 3.09872e-07 3.07318e-07)
(0.682733 -1.33522e-07 -1.3611e-07)
(0.682722 3.65424e-08 3.72083e-08)
(0.682725 -5.05468e-09 -4.0968e-09)
(0.682728 3.09086e-08 3.12146e-08)
(0.682727 -3.51232e-08 -3.4431e-08)
)
;

boundaryField
{
    inlet
    {
        type            fixedValue;
        value           uniform (1.667 0 0);
    }
    outlet
    {
        type            zeroGradient;
    }
    Walls
    {
        type            noSlip;
    }
}


// ************************************************************************* //
