/*--------------------------------*- C++ -*----------------------------------*\
  =========                 |
  \\      /  F ield         | OpenFOAM: The Open Source CFD Toolbox
   \\    /   O peration     | Website:  https://openfoam.org
    \\  /    A nd           | Version:  13
     \\/     M anipulation  |
\*---------------------------------------------------------------------------*/
FoamFile
{
    format      ascii;
    class       surfaceScalarField;
    location    "30";
    object      phi;
}
// * * * * * * * * * * * * * * * * * * * * * * * * * * * * * * * * * * * * * //

dimensions      [0 3 -1 0 0 0 0];

internalField   nonuniform List<scalar> 
10260
(
2.76502e-14
6.95249e-14
6.95249e-14
2.18005e-14
2.92491e-15
2.9249e-15
2.53315e-14
-1.76552e-15
-1.76554e-15
2.31628e-14
1.08435e-15
1.08437e-15
2.44917e-14
-6.64393e-16
-6.64412e-16
2.36774e-14
4.07486e-16
4.07493e-16
2.41769e-14
-2.50605e-16
-2.50575e-16
2.38727e-14
1.52883e-16
1.52845e-16
2.40545e-14
-9.12653e-17
-9.12721e-17
2.39484e-14
5.32419e-17
5.32567e-17
2.40081e-14
-2.99491e-17
-2.99774e-17
2.39756e-14
1.62951e-17
1.63255e-17
2.39924e-14
-8.49622e-18
-8.50712e-18
2.39838e-14
4.19582e-18
4.22105e-18
2.39881e-14
-2.11649e-18
-2.12706e-18
2.39861e-14
1.03338e-18
1.03489e-18
2.39872e-14
-5.70107e-19
-5.6946e-19
2.39865e-14
3.71261e-19
3.71028e-19
2.39871e-14
-2.90172e-19
-2.88724e-19
2.39866e-14
2.41589e-19
2.3973e-19
2.3987e-14
-1.84862e-19
-1.82872e-19
2.39868e-14
7.20889e-20
6.98181e-20
2.39868e-14
-6.31323e-21
-5.24302e-21
2.3987e-14
-6.31253e-20
-6.44326e-20
2.39867e-14
1.17341e-19
1.17996e-19
2.3987e-14
-1.56346e-19
-1.57048e-19
2.39867e-14
1.74639e-19
1.75046e-19
2.39874e-14
-3.08274e-19
-3.09029e-19
2.39868e-14
2.97922e-19
2.98309e-19
2.39877e-14
-4.20409e-19
-4.23883e-19
2.39868e-14
4.33303e-19
4.3651e-19
2.39881e-14
-5.63442e-19
-5.67417e-19
2.39865e-14
7.19191e-19
7.23879e-19
2.39878e-14
-6.04317e-19
-6.10408e-19
2.39863e-14
7.08481e-19
7.14303e-19
2.39878e-14
-6.20609e-19
-6.25453e-19
7.8877e-19
7.85349e-19
5.27515e-14
7.42067e-14
1.09267e-13
4.69525e-14
3.75021e-15
4.97408e-15
5.04398e-14
-2.25438e-15
-2.9985e-15
4.82958e-14
1.38704e-15
1.84134e-15
4.96094e-14
-8.50315e-16
-1.12752e-15
4.8805e-14
5.23538e-16
6.90447e-16
4.92983e-14
-3.25465e-16
-4.23265e-16
4.89982e-14
2.00567e-16
2.56846e-16
4.9177e-14
-1.20041e-16
-1.52089e-16
4.90731e-14
7.03476e-17
8.77113e-17
4.91309e-14
-3.98034e-17
-4.85314e-17
4.90998e-14
2.1905e-17
2.58211e-17
4.91155e-14
-1.16532e-17
-1.3114e-17
4.91075e-14
5.36198e-18
6.35189e-18
4.91114e-14
-2.76182e-18
-3.19256e-18
4.91097e-14
1.40804e-18
1.55737e-18
4.91107e-14
-7.24313e-19
-9.05871e-19
4.911e-14
4.21887e-19
6.52147e-19
4.91106e-14
-3.12433e-19
-5.38793e-19
4.91101e-14
2.85575e-19
4.68723e-19
4.91105e-14
-2.11348e-19
-3.70679e-19
4.91104e-14
3.67227e-20
1.70256e-19
4.91104e-14
5.81007e-20
-6.12623e-20
4.91106e-14
-1.20493e-19
-7.87534e-20
4.91103e-14
1.8733e-19
1.83672e-19
4.91107e-14
-2.23061e-19
-2.64753e-19
4.91103e-14
2.3441e-19
2.95252e-19
4.91111e-14
-3.67515e-19
-5.79724e-19
4.91105e-14
3.61589e-19
5.37801e-19
4.91115e-14
-4.12764e-19
-8.32473e-19
4.91106e-14
4.46407e-19
8.44434e-19
4.91121e-14
-3.35998e-19
-1.18822e-18
4.91102e-14
4.92756e-19
1.56288e-18
4.91116e-14
-3.49278e-19
-1.32428e-18
4.91099e-14
4.7779e-19
1.57747e-18
4.91116e-14
-8.43917e-20
-1.44546e-18
3.7708e-19
1.77142e-18
6.69263e-14
5.69581e-14
1.17022e-13
6.20246e-14
3.06236e-15
5.58983e-15
6.49733e-14
-1.83436e-15
-3.36875e-15
6.31612e-14
1.13021e-15
2.06905e-15
6.42711e-14
-6.93185e-16
-1.26695e-15
6.35923e-14
4.27797e-16
7.76547e-16
6.4007e-14
-2.67856e-16
-4.77056e-16
6.3756e-14
1.66328e-16
2.89591e-16
6.39047e-14
-9.96815e-17
-1.71086e-16
6.38191e-14
5.85615e-17
9.82952e-17
6.3866e-14
-3.31786e-17
-5.41437e-17
6.38413e-14
1.83112e-17
2.86771e-17
6.38534e-14
-9.79925e-18
-1.45149e-17
6.38472e-14
4.29213e-18
6.82547e-18
6.38502e-14
-2.24947e-18
-3.43269e-18
6.3849e-14
1.1181e-18
1.72358e-18
6.38498e-14
-5.61872e-19
-1.01206e-18
6.38492e-14
3.07885e-19
7.25092e-19
6.38497e-14
-2.23337e-19
-6.11605e-19
6.38493e-14
2.259e-19
5.37648e-19
6.38497e-14
-1.67599e-19
-4.25906e-19
6.38495e-14
-8.67768e-21
1.95179e-19
6.38496e-14
8.14036e-20
-5.2313e-20
6.38497e-14
-1.30816e-19
-8.89995e-20
6.38495e-14
1.81044e-19
2.17755e-19
6.38498e-14
-1.98191e-19
-3.13508e-19
6.38495e-14
1.75266e-19
3.68223e-19
6.38502e-14
-3.25584e-19
-6.31239e-19
6.38497e-14
2.63671e-19
6.3334e-19
6.38506e-14
-3.2398e-19
-8.65794e-19
6.38498e-14
2.74943e-19
9.77546e-19
6.38513e-14
-1.13754e-19
-1.21878e-18
6.38494e-14
2.78618e-19
1.6022e-18
6.38509e-14
-2.33763e-20
-1.46011e-18
6.3849e-14
1.80687e-19
1.71958e-18
6.38509e-14
3.06555e-19
-1.46632e-18
1.95906e-20
1.81111e-18
7.51082e-14
3.03291e-14
1.18221e-13
7.07316e-14
1.67334e-15
5.76595e-15
7.33718e-14
-9.99835e-16
-3.47481e-15
7.17509e-14
6.16369e-16
2.13486e-15
7.27435e-14
-3.7796e-16
-1.30773e-15
7.21372e-14
2.33599e-16
8.02451e-16
7.2506e-14
-1.46837e-16
-4.94502e-16
7.22839e-14
9.16366e-17
3.01075e-16
7.2415e-14
-5.47258e-17
-1.78106e-16
7.234e-14
3.20222e-17
1.02495e-16
7.23808e-14
-1.81343e-17
-5.64755e-17
7.23596e-14
9.91492e-18
2.99821e-17
7.23698e-14
-5.36901e-18
-1.51733e-17
7.23644e-14
2.18246e-18
7.02431e-18
7.2367e-14
-1.20376e-18
-3.52491e-18
7.2366e-14
5.67359e-19
1.7623e-18
7.23667e-14
-3.00029e-19
-1.01797e-18
7.23661e-14
1.58222e-19
7.2116e-19
7.23667e-14
-1.16329e-19
-6.09752e-19
7.23663e-14
1.33442e-19
5.4205e-19
7.23667e-14
-1.00959e-19
-4.28244e-19
7.23665e-14
-7.32262e-21
1.65809e-19
7.23666e-14
4.45474e-20
-1.64321e-20
7.23666e-14
-7.24928e-20
-1.27844e-19
7.23665e-14
1.01556e-19
2.57549e-19
7.23667e-14
-1.05442e-19
-3.49111e-19
7.23665e-14
8.12203e-20
3.8246e-19
7.23671e-14
-1.91079e-19
-6.73965e-19
7.23666e-14
1.27333e-19
6.37495e-19
7.23675e-14
-1.73662e-19
-8.80618e-19
7.23667e-14
1.11938e-19
9.49185e-19
7.23683e-14
1.07485e-20
-1.1481e-18
7.23663e-14
1.29768e-19
1.54963e-18
7.23679e-14
9.71632e-20
-1.32867e-18
7.2366e-14
3.10547e-20
1.62115e-18
7.2368e-14
3.1573e-19
-1.2428e-18
-1.40566e-19
1.67121e-18
7.88953e-14
3.32178e-19
1.18133e-13
7.47638e-14
-5.75381e-20
5.80537e-15
7.72618e-14
1.85319e-19
-3.49817e-15
7.57293e-14
-1.50508e-19
2.14914e-15
7.66676e-14
1.74561e-19
-1.31639e-15
7.6095e-14
6.15016e-19
8.07626e-16
7.64422e-14
-6.96984e-19
-4.98205e-16
7.62338e-14
6.42012e-19
3.03813e-16
7.63566e-14
8.47356e-20
-1.79807e-16
7.62866e-14
-5.08851e-19
1.03667e-16
7.63246e-14
2.90127e-19
-5.71284e-17
7.6305e-14
-4.32687e-19
3.041e-17
7.63143e-14
1.00826e-19
-1.53997e-17
7.63093e-14
-3.39418e-19
7.12063e-18
7.63116e-14
7.68908e-20
-3.59183e-18
7.63108e-14
-6.17612e-20
1.76625e-18
7.63115e-14
-1.66481e-20
-1.00419e-18
7.63109e-14
-7.58001e-22
7.15092e-19
7.63115e-14
-9.21234e-21
-5.98294e-19
7.6311e-14
2.14198e-20
5.45182e-19
7.63114e-14
-1.24309e-20
-4.3664e-19
7.63112e-14
2.01706e-20
1.47655e-19
7.63113e-14
-2.22392e-21
-1.89819e-20
7.63114e-14
1.30134e-20
-1.39352e-19
7.63112e-14
1.58715e-21
2.5972e-19
7.63115e-14
-1.49518e-22
-3.44527e-19
7.63112e-14
2.28198e-20
3.387e-19
7.63118e-14
2.07684e-20
-7.20798e-19
7.63113e-14
1.08361e-20
6.03531e-19
7.63122e-14
7.67189e-20
-9.55324e-19
7.63114e-14
-7.18641e-21
9.01104e-19
7.6313e-14
1.46699e-19
-1.1762e-18
7.6311e-14
-1.23199e-19
1.65169e-18
7.63126e-14
8.47644e-20
-1.24406e-18
7.63107e-14
-8.90815e-20
1.61617e-18
7.63128e-14
1.63425e-19
-1.17374e-18
-3.24035e-19
1.73439e-18
7.88953e-14
-3.03286e-14
1.18134e-13
7.47637e-14
-1.67344e-15
5.80539e-15
7.72618e-14
1.00018e-15
-3.49818e-15
7.57293e-14
-6.1665e-16
2.14915e-15
7.66676e-14
3.78287e-16
-1.3164e-15
7.6095e-14
-2.32426e-16
8.07629e-16
7.64422e-14
1.45377e-16
-4.98142e-16
7.62338e-14
-9.02608e-17
3.03723e-16
7.63566e-14
5.47981e-17
-1.79782e-16
7.62866e-14
-3.29102e-17
1.03663e-16
7.63246e-14
1.86447e-17
-5.71341e-17
7.6305e-14
-1.06883e-17
3.0398e-17
7.63143e-14
5.52961e-18
-1.54001e-17
7.63093e-14
-2.82032e-18
7.12453e-18
7.63116e-14
1.34044e-18
-3.58881e-18
7.63108e-14
-6.72777e-19
1.76901e-18
7.63115e-14
2.69703e-19
-1.00642e-18
7.63109e-14
-1.59987e-19
7.15381e-19
7.63115e-14
1.02808e-19
-6.00722e-19
7.6311e-14
-9.25547e-20
5.43619e-19
7.63114e-14
7.66931e-20
-4.33888e-19
7.63112e-14
4.288e-20
1.50371e-19
7.63113e-14
-5.02005e-20
-1.61833e-20
7.63114e-14
9.73551e-20
-1.40151e-19
7.63112e-14
-1.00382e-19
2.61742e-19
7.63114e-14
1.07243e-19
-3.46624e-19
7.63112e-14
-4.59655e-20
3.48085e-19
7.63118e-14
2.2728e-19
-7.14221e-19
7.63113e-14
-1.13607e-19
6.11591e-19
7.63122e-14
3.12739e-19
-9.46078e-19
7.63114e-14
-1.36546e-19
9.13851e-19
7.6313e-14
2.74979e-19
-1.17676e-18
7.6311e-14
-3.61086e-19
1.63654e-18
7.63126e-14
8.35011e-20
-1.26155e-18
7.63107e-14
-2.07713e-19
1.61714e-18
7.63128e-14
1.90163e-20
-1.18844e-18
-4.71548e-19
1.72773e-18
7.51082e-14
-5.6958e-14
1.18221e-13
7.07316e-14
-3.06241e-15
5.76598e-15
7.33718e-14
1.83463e-15
-3.47484e-15
7.17509e-14
-1.13043e-15
2.13488e-15
7.27435e-14
6.93458e-16
-1.30774e-15
7.21373e-14
-4.26711e-16
8.02361e-16
7.25059e-14
2.66194e-16
-4.94246e-16
7.22839e-14
-1.64746e-16
3.00818e-16
7.2415e-14
9.94902e-17
-1.78018e-16
7.234e-14
-5.91116e-17
1.025e-16
7.23808e-14
3.35055e-17
-5.64963e-17
7.23596e-14
-1.88513e-17
2.99695e-17
7.23698e-14
9.85731e-18
-1.5179e-17
7.23644e-14
-4.82976e-18
7.04652e-18
7.2367e-14
2.35729e-18
-3.52565e-18
7.2366e-14
-1.17051e-18
1.76516e-18
7.23667e-14
5.34565e-19
-1.01838e-18
7.23661e-14
-3.09706e-19
7.21723e-19
7.23667e-14
2.19507e-19
-6.13368e-19
7.23663e-14
-1.91907e-19
5.38886e-19
7.23666e-14
1.47793e-19
-4.23551e-19
7.23665e-14
3.50176e-20
1.69157e-19
7.23666e-14
-8.59904e-20
-1.34723e-20
7.23666e-14
1.53431e-19
-1.31356e-19
7.23665e-14
-1.83992e-19
2.61785e-19
7.23667e-14
2.03561e-19
-3.5275e-19
7.23665e-14
-1.55217e-19
3.94181e-19
7.23671e-14
3.63525e-19
-6.73866e-19
7.23666e-14
-2.63056e-19
6.505e-19
7.23675e-14
4.54397e-19
-8.89452e-19
7.23667e-14
-3.18736e-19
9.75609e-19
7.23682e-14
3.98029e-19
-1.17764e-18
7.23663e-14
-5.17045e-19
1.56497e-18
7.23678e-14
2.22243e-19
-1.36951e-18
7.2366e-14
-3.67374e-19
1.64362e-18
7.2368e-14
4.74478e-20
-1.29211e-18
-5.54437e-19
1.6987e-18
6.69263e-14
-7.42066e-14
1.17022e-13
6.20246e-14
-3.75015e-15
5.58983e-15
6.49733e-14
2.25455e-15
-3.36878e-15
6.31612e-14
-1.38718e-15
2.06909e-15
6.42711e-14
8.50552e-16
-1.26702e-15
6.35924e-14
-5.2253e-16
7.76329e-16
6.40069e-14
3.23505e-16
-4.76584e-16
6.37561e-14
-1.98798e-16
2.8923e-16
6.39047e-14
1.19537e-16
-1.70979e-16
6.38191e-14
-7.04865e-17
9.83571e-17
6.38661e-14
3.99241e-17
-5.42152e-17
6.38413e-14
-2.2182e-17
2.8722e-17
6.38534e-14
1.16015e-17
-1.45443e-17
6.38471e-14
-5.76833e-18
6.89918e-18
6.38502e-14
2.84796e-18
-3.47213e-18
6.3849e-14
-1.3911e-18
1.72878e-18
6.38498e-14
6.99778e-19
-1.01015e-18
6.38492e-14
-4.2822e-19
7.3094e-19
6.38497e-14
3.17237e-19
-6.13009e-19
6.38493e-14
-2.65145e-19
5.36568e-19
6.38497e-14
2.02996e-19
-4.24734e-19
6.38495e-14
-1.89245e-20
1.95058e-19
6.38496e-14
-5.05159e-20
-5.94299e-20
6.38497e-14
1.36516e-19
-9.11908e-20
6.38495e-14
-1.87862e-19
2.15728e-19
6.38498e-14
2.24315e-19
-3.09777e-19
6.38495e-14
-2.04386e-19
3.52103e-19
6.38502e-14
4.21234e-19
-6.47575e-19
6.38496e-14
-3.47661e-19
6.19106e-19
6.38506e-14
5.49549e-19
-9.0322e-19
6.38498e-14
-4.66612e-19
9.65253e-19
6.38513e-14
6.11494e-19
-1.26838e-18
6.38493e-14
-7.81768e-19
1.68017e-18
6.38508e-14
5.18653e-19
-1.47247e-18
6.3849e-14
-6.72366e-19
1.75655e-18
6.38509e-14
4.34802e-19
-1.52487e-18
-8.4031e-19
1.89494e-18
5.27515e-14
-6.95249e-14
1.09267e-13
4.69525e-14
-2.92477e-15
4.97412e-15
5.04398e-14
1.76557e-15
-2.99853e-15
4.82958e-14
-1.08438e-15
1.84135e-15
4.96094e-14
6.64484e-16
-1.1275e-15
4.8805e-14
-4.06945e-16
6.90598e-16
4.92982e-14
2.48982e-16
-4.23437e-16
4.89982e-14
-1.51417e-16
2.56949e-16
4.9177e-14
9.07004e-17
-1.52261e-16
4.90731e-14
-5.30032e-17
8.78724e-17
4.91309e-14
2.99134e-17
-4.86818e-17
4.90998e-14
-1.63104e-17
2.59043e-17
4.91155e-14
8.38892e-18
-1.32095e-17
4.91075e-14
-4.39879e-18
6.35395e-18
4.91114e-14
2.16011e-18
-3.18955e-18
4.91097e-14
-9.75434e-19
1.60123e-18
4.91107e-14
5.61768e-19
-9.16411e-19
4.911e-14
-3.77822e-19
6.54206e-19
4.91106e-14
3.02526e-19
-5.38121e-19
4.91101e-14
-2.32546e-19
4.63652e-19
4.91105e-14
1.79815e-19
-3.6003e-19
4.91104e-14
-6.97402e-20
1.74809e-19
4.91104e-14
1.16412e-20
-5.30166e-20
4.91106e-14
6.83651e-20
-7.88502e-20
4.91103e-14
-1.18405e-19
1.85558e-19
4.91106e-14
1.57837e-19
-2.66388e-19
4.91103e-14
-1.7122e-19
3.14562e-19
4.91111e-14
3.29613e-19
-5.50525e-19
4.91105e-14
-2.9932e-19
5.51436e-19
4.91115e-14
4.73903e-19
-7.87346e-19
4.91106e-14
-4.56424e-19
8.6034e-19
4.91121e-14
7.16926e-19
-1.136e-18
4.91102e-14
-8.78536e-19
1.47007e-18
4.91116e-14
7.25488e-19
-1.32597e-18
4.91099e-14
-8.2592e-19
1.53823e-18
4.91116e-14
8.61117e-19
-1.40835e-18
-9.76899e-19
1.70701e-18
2.76502e-14
6.95249e-14
2.18005e-14
2.92501e-15
2.53315e-14
-1.76552e-15
2.31628e-14
1.08436e-15
2.44917e-14
-6.6436e-16
2.36774e-14
4.07641e-16
2.41769e-14
-2.51424e-16
2.38727e-14
1.53597e-16
2.40545e-14
-9.15766e-17
2.39483e-14
5.34767e-17
2.40081e-14
-2.99984e-17
2.39756e-14
1.634e-17
2.39924e-14
-8.56335e-18
2.39838e-14
4.12855e-18
2.39881e-14
-2.09944e-18
2.39861e-14
1.07516e-18
2.39872e-14
-5.71261e-19
2.39865e-14
3.67916e-19
2.39871e-14
-2.84032e-19
2.39866e-14
2.43783e-19
2.3987e-14
-1.87203e-19
2.39868e-14
7.17686e-20
2.39868e-14
-4.17708e-21
2.3987e-14
-6.18968e-20
2.39867e-14
1.15873e-19
2.3987e-14
-1.54718e-19
2.39867e-14
1.70901e-19
2.39874e-14
-3.00615e-19
2.39868e-14
2.93924e-19
2.39877e-14
-4.07533e-19
2.39868e-14
4.23274e-19
2.39881e-14
-5.0659e-19
2.39865e-14
6.54403e-19
2.39878e-14
-5.5534e-19
2.39862e-14
6.65059e-19
2.39878e-14
-5.16515e-19
7.5337e-19
5.27515e-14
1.09267e-13
7.42067e-14
4.69525e-14
4.97408e-15
3.75021e-15
5.04398e-14
-2.99849e-15
-2.25441e-15
4.82958e-14
1.84132e-15
1.38707e-15
4.96094e-14
-1.12751e-15
-8.50348e-16
4.8805e-14
6.90479e-16
5.23525e-16
4.92983e-14
-4.23294e-16
-3.2543e-16
4.89982e-14
2.56916e-16
2.00486e-16
4.9177e-14
-1.52085e-16
-1.20062e-16
4.90731e-14
8.76661e-17
7.04083e-17
4.91309e-14
-4.84983e-17
-3.98653e-17
4.90998e-14
2.57845e-17
2.19714e-17
4.91155e-14
-1.31008e-17
-1.16791e-17
4.91075e-14
6.31054e-18
5.41572e-18
4.91114e-14
-3.17104e-18
-2.78396e-18
4.91097e-14
1.55163e-18
1.41609e-18
4.91107e-14
-9.06832e-19
-7.22846e-19
4.911e-14
6.52615e-19
4.21138e-19
4.91106e-14
-5.40731e-19
-3.08898e-19
4.91101e-14
4.70639e-19
2.81921e-19
4.91105e-14
-3.72479e-19
-2.07571e-19
4.91104e-14
1.72533e-19
3.22419e-20
4.91104e-14
-6.20978e-20
6.01167e-20
4.91106e-14
-7.69753e-20
-1.23464e-19
4.91103e-14
1.82977e-19
1.88675e-19
4.91107e-14
-2.64007e-19
-2.24492e-19
4.91103e-14
2.95808e-19
2.34465e-19
4.91111e-14
-5.77983e-19
-3.69553e-19
4.91105e-14
5.38207e-19
3.617e-19
4.91115e-14
-8.23239e-19
-4.23961e-19
4.91106e-14
8.38306e-19
4.54994e-19
4.91121e-14
-1.1784e-18
-3.46832e-19
4.91102e-14
1.55324e-18
5.04016e-19
4.91116e-14
-1.31016e-18
-3.66542e-19
4.91099e-14
1.56237e-18
4.95497e-19
4.91116e-14
-1.4358e-18
-9.4749e-20
1.77093e-18
3.78566e-19
1.14683e-13
1.35275e-13
1.35275e-13
1.10472e-13
7.08034e-15
7.08036e-15
1.12972e-13
-4.24893e-15
-4.24896e-15
1.11428e-13
2.61363e-15
2.61367e-15
1.12378e-13
-1.60217e-15
-1.60221e-15
1.11792e-13
9.86111e-16
9.86039e-16
1.12158e-13
-6.1294e-16
-6.12923e-16
1.11927e-13
3.78324e-16
3.78171e-16
1.12072e-13
-2.26954e-16
-2.26984e-16
1.11982e-13
1.33564e-16
1.33708e-16
1.12036e-13
-7.60345e-17
-7.61259e-17
1.12004e-13
4.21412e-17
4.22389e-17
1.12021e-13
-2.26363e-17
-2.26801e-17
1.12012e-13
1.05346e-17
1.06337e-17
1.12017e-13
-5.48453e-18
-5.53223e-18
1.12015e-13
2.77356e-18
2.79708e-18
1.12016e-13
-1.39464e-18
-1.39404e-18
1.12015e-13
7.94274e-19
7.93971e-19
1.12015e-13
-5.50028e-19
-5.45659e-19
1.12015e-13
5.22536e-19
5.18565e-19
1.12015e-13
-3.82906e-19
-3.79028e-19
1.12016e-13
4.72628e-20
4.27398e-20
1.12015e-13
9.43495e-20
9.6808e-20
1.12016e-13
-2.24458e-19
-2.28817e-19
1.12016e-13
3.32604e-19
3.34192e-19
1.12016e-13
-3.88311e-19
-3.90066e-19
1.12016e-13
3.71351e-19
3.70666e-19
1.12016e-13
-7.04972e-19
-7.07229e-19
1.12016e-13
6.1673e-19
6.15764e-19
1.12017e-13
-8.26637e-19
-8.47577e-19
1.12017e-13
7.43011e-19
7.58977e-19
1.12017e-13
-6.23809e-19
-6.4414e-19
1.12017e-13
9.91423e-19
1.006e-18
1.12016e-13
-5.12589e-19
-5.48354e-19
1.12016e-13
8.14849e-19
8.50619e-19
1.12016e-13
-8.40848e-20
-1.01681e-19
7.2373e-19
7.32213e-19
1.53211e-13
1.11653e-13
1.54133e-13
1.51433e-13
6.12136e-15
8.32774e-15
1.52468e-13
-3.65953e-15
-4.9938e-15
1.51826e-13
2.25331e-15
3.072e-15
1.52222e-13
-1.38144e-15
-1.88335e-15
1.51978e-13
8.51811e-16
1.16003e-15
1.52131e-13
-5.32249e-16
-7.22722e-16
1.52033e-13
3.30256e-16
4.46459e-16
1.52096e-13
-1.98149e-16
-2.67729e-16
1.52056e-13
1.16653e-16
1.5749e-16
1.5208e-13
-6.65172e-17
-8.94451e-17
1.52066e-13
3.69567e-17
4.95564e-17
1.52073e-13
-2.00016e-17
-2.65619e-17
1.52068e-13
8.89998e-18
1.22134e-17
1.52071e-13
-4.71374e-18
-6.35508e-18
1.5207e-13
2.36853e-18
3.24568e-18
1.52071e-13
-1.18383e-18
-1.61176e-18
1.5207e-13
6.31273e-19
9.0983e-19
1.52071e-13
-4.26922e-19
-6.33588e-19
1.52071e-13
4.46685e-19
6.13597e-19
1.52071e-13
-3.27708e-19
-4.50519e-19
1.52071e-13
-1.68937e-22
3.34945e-20
1.52071e-13
1.24384e-19
1.44525e-19
1.52071e-13
-2.16769e-19
-2.88487e-19
1.52071e-13
3.1016e-19
4.18242e-19
1.52071e-13
-3.44079e-19
-4.82973e-19
1.52071e-13
3.10081e-19
4.59253e-19
1.52071e-13
-5.97493e-19
-8.35425e-19
1.52071e-13
5.03475e-19
7.36219e-19
1.52072e-13
-6.24352e-19
-9.51205e-19
1.52072e-13
5.38085e-19
8.87176e-19
1.52072e-13
-2.22662e-19
-6.19259e-19
1.52072e-13
5.52454e-19
1.03131e-18
1.52071e-13
-7.04883e-20
-5.32686e-19
1.52072e-13
3.68181e-19
8.95747e-19
1.52071e-13
5.20378e-19
1.46482e-19
7.87266e-20
6.33762e-19
1.76179e-13
6.16081e-14
1.58787e-13
1.7587e-13
3.44656e-15
8.75112e-15
1.76037e-13
-2.05565e-15
-5.24596e-15
1.75931e-13
1.26651e-15
3.22743e-15
1.75998e-13
-7.7645e-16
-1.97891e-15
1.75958e-13
4.80025e-16
1.21962e-15
1.75981e-13
-3.01166e-16
-7.61508e-16
1.75965e-13
1.87531e-16
4.71317e-16
1.75978e-13
-1.12038e-16
-2.82756e-16
1.75968e-13
6.54074e-17
1.6647e-16
1.75975e-13
-3.72539e-17
-9.44811e-17
1.7597e-13
2.04727e-17
5.2417e-17
1.75973e-13
-1.11706e-17
-2.8076e-17
1.7597e-13
4.56038e-18
1.27694e-17
1.75971e-13
-2.52015e-18
-6.64539e-18
1.75971e-13
1.23793e-18
3.38991e-18
1.75971e-13
-6.66288e-19
-1.66011e-18
1.75972e-13
3.33056e-19
9.25476e-19
1.75972e-13
-2.31719e-19
-6.40635e-19
1.75972e-13
2.72353e-19
6.37364e-19
1.75972e-13
-1.98479e-19
-4.70463e-19
1.75972e-13
1.66592e-21
-1.03632e-21
1.75972e-13
8.4061e-20
1.82756e-19
1.75972e-13
-1.16992e-19
-3.34653e-19
1.75972e-13
1.84493e-19
4.657e-19
1.75972e-13
-2.00686e-19
-5.25756e-19
1.75972e-13
1.9447e-19
4.70268e-19
1.75972e-13
-3.13561e-19
-9.0807e-19
1.75972e-13
2.84892e-19
7.52599e-19
1.75972e-13
-2.46106e-19
-1.00925e-18
1.75973e-13
2.63657e-19
8.77336e-19
1.75973e-13
1.1206e-19
-5.53548e-19
1.75973e-13
1.00841e-19
1.01071e-18
1.75972e-13
1.46306e-19
-3.84893e-19
1.75973e-13
3.47743e-20
8.14156e-19
1.75973e-13
6.29468e-19
4.29313e-19
-4.18258e-19
5.10277e-19
1.86943e-13
3.36514e-19
1.59498e-13
1.87327e-13
-1.5826e-19
8.86918e-15
1.87088e-13
3.72793e-19
-5.31597e-15
1.87234e-13
-3.45953e-19
3.2705e-15
1.87146e-13
4.56749e-19
-2.0053e-15
1.87202e-13
1.52661e-18
1.23595e-15
1.87164e-13
-1.9987e-18
-7.72454e-16
1.87186e-13
1.81554e-18
4.78559e-16
1.87176e-13
-5.80251e-20
-2.87196e-16
1.8718e-13
-1.10899e-18
1.69244e-16
1.87179e-13
6.33614e-19
-9.60207e-17
1.87179e-13
-8.29001e-19
5.33399e-17
1.87179e-13
2.27477e-19
-2.85601e-17
1.87177e-13
-7.7092e-19
1.29502e-17
1.87178e-13
1.88771e-19
-6.74297e-18
1.87178e-13
-1.42454e-19
3.43203e-18
1.87178e-13
-2.96372e-20
-1.66226e-18
1.87178e-13
-1.41274e-20
9.23421e-19
1.87178e-13
2.23692e-21
-6.3461e-19
1.87178e-13
4.78922e-20
6.43166e-19
1.87178e-13
-3.00468e-20
-4.78705e-19
1.87178e-13
2.72235e-20
-1.9484e-20
1.87178e-13
-2.97232e-21
1.92564e-19
1.87179e-13
3.27929e-20
-3.51819e-19
1.87179e-13
-2.67578e-21
4.77403e-19
1.87178e-13
2.93262e-21
-5.3239e-19
1.87179e-13
3.34297e-20
4.48826e-19
1.87179e-13
4.80724e-20
-9.44495e-19
1.87179e-13
7.62527e-21
7.3767e-19
1.87179e-13
1.77252e-19
-1.05585e-18
1.87179e-13
-4.43732e-20
8.49537e-19
1.8718e-13
3.6572e-19
-5.4385e-19
1.87179e-13
-2.91413e-19
1.04142e-18
1.87179e-13
2.3416e-19
-3.01786e-19
1.87179e-13
-2.13079e-19
7.85711e-19
1.8718e-13
4.36929e-19
5.46079e-19
-7.47924e-19
5.15799e-19
1.86943e-13
-6.16074e-14
1.59498e-13
1.87327e-13
-3.44681e-15
8.8692e-15
1.87088e-13
2.05631e-15
-5.316e-15
1.87234e-13
-1.26713e-15
3.27052e-15
1.87146e-13
7.77292e-16
-2.0053e-15
1.87202e-13
-4.77017e-16
1.23585e-15
1.87164e-13
2.97079e-16
-7.72312e-16
1.87186e-13
-1.83819e-16
4.78408e-16
1.87176e-13
1.11747e-16
-2.87194e-16
1.8718e-13
-6.73668e-17
1.69325e-16
1.87179e-13
3.83616e-17
-9.60694e-17
1.87179e-13
-2.19696e-17
5.33831e-17
1.87179e-13
1.15346e-17
-2.85786e-17
1.87177e-13
-6.01974e-18
1.29896e-17
1.87178e-13
2.87734e-18
-6.75084e-18
1.87178e-13
-1.47605e-18
3.44502e-18
1.87178e-13
6.07535e-19
-1.66278e-18
1.87178e-13
-3.61065e-19
9.23943e-19
1.87178e-13
2.40868e-19
-6.35499e-19
1.87178e-13
-1.84409e-19
6.39642e-19
1.87178e-13
1.46331e-19
-4.74945e-19
1.87178e-13
4.84815e-20
-1.83526e-20
1.87178e-13
-8.45862e-20
1.94169e-19
1.87179e-13
1.77311e-19
-3.53025e-19
1.87179e-13
-1.87861e-19
4.77681e-19
1.87178e-13
2.0458e-19
-5.3271e-19
1.87179e-13
-1.24545e-19
4.51822e-19
1.87179e-13
4.137e-19
-9.39747e-19
1.87179e-13
-2.65074e-19
7.40869e-19
1.87179e-13
5.95389e-19
-1.05597e-18
1.87179e-13
-3.43808e-19
8.57897e-19
1.8718e-13
6.09108e-19
-5.59179e-19
1.87179e-13
-6.96506e-19
1.04136e-18
1.87179e-13
3.10998e-19
-3.23099e-19
1.87179e-13
-4.65577e-19
7.95565e-19
1.8718e-13
2.386e-19
5.16459e-19
-1.02652e-18
5.52205e-19
1.76179e-13
-1.11653e-13
1.58787e-13
1.7587e-13
-6.12145e-15
8.75119e-15
1.76037e-13
3.65999e-15
-5.24604e-15
1.75931e-13
-2.25373e-15
3.22749e-15
1.75998e-13
1.38209e-15
-1.97894e-15
1.75958e-13
-8.4906e-16
1.21931e-15
1.75981e-13
5.28102e-16
-7.61061e-16
1.75965e-13
-3.26459e-16
4.70871e-16
1.75978e-13
1.97448e-16
-2.82734e-16
1.75968e-13
-1.17917e-16
1.66692e-16
1.75975e-13
6.72013e-17
-9.46142e-17
1.7597e-13
-3.80091e-17
5.25432e-17
1.75973e-13
2.01304e-17
-2.81245e-17
1.7597e-13
-1.01003e-17
1.28884e-17
1.75971e-13
4.99593e-18
-6.67426e-18
1.75971e-13
-2.48824e-18
3.42223e-18
1.75971e-13
1.13127e-18
-1.65926e-18
1.75972e-13
-6.58573e-19
9.27385e-19
1.75972e-13
4.49043e-19
-6.42272e-19
1.75972e-13
-3.80095e-19
6.28316e-19
1.75972e-13
2.95385e-19
-4.61597e-19
1.75972e-13
3.62293e-20
3.55603e-22
1.75972e-13
-1.13481e-19
1.84698e-19
1.75972e-13
2.61315e-19
-3.38354e-19
1.75972e-13
-3.08566e-19
4.656e-19
1.75972e-13
3.43475e-19
-5.25457e-19
1.75972e-13
-2.40233e-19
4.71491e-19
1.75972e-13
6.9477e-19
-9.02745e-19
1.75972e-13
-4.75464e-19
7.55861e-19
1.75972e-13
9.31856e-19
-1.02415e-18
1.75973e-13
-5.95322e-19
8.94425e-19
1.75973e-13
8.81289e-19
-6.0848e-19
1.75973e-13
-1.13217e-18
1.03715e-18
1.75972e-13
4.88043e-19
-4.40806e-19
1.75973e-13
-7.86206e-19
8.5139e-19
1.75973e-13
3.0245e-19
3.40784e-19
-1.34521e-18
6.31132e-19
1.53211e-13
-1.35275e-13
1.54133e-13
1.51433e-13
-7.08023e-15
8.32782e-15
1.52469e-13
4.24909e-15
-4.99392e-15
1.51826e-13
-2.61377e-15
3.07209e-15
1.52222e-13
1.6025e-15
-1.88341e-15
1.51979e-13
-9.83762e-16
1.15957e-15
1.5213e-13
6.08662e-16
-7.22023e-16
1.52033e-13
-3.74324e-16
4.45788e-16
1.52096e-13
2.2559e-16
-2.67679e-16
1.52056e-13
-1.33709e-16
1.57793e-16
1.5208e-13
7.60482e-17
-8.96346e-17
1.52065e-13
-4.24867e-17
4.97536e-17
1.52073e-13
2.23927e-17
-2.66294e-17
1.52068e-13
-1.1348e-17
1.23891e-17
1.52071e-13
5.6504e-18
-6.39627e-18
1.5207e-13
-2.70802e-18
3.2874e-18
1.52071e-13
1.35151e-18
-1.60848e-18
1.5207e-13
-8.16367e-19
9.13543e-19
1.52071e-13
5.94785e-19
-6.34522e-19
1.52071e-13
-4.84894e-19
6.01663e-19
1.52071e-13
3.76321e-19
-4.39898e-19
1.52071e-13
-3.55793e-20
3.26091e-20
1.52071e-13
-7.40492e-20
1.44182e-19
1.52071e-13
2.47191e-19
-2.93423e-19
1.52071e-13
-3.28949e-19
4.1629e-19
1.52071e-13
3.86987e-19
-4.80614e-19
1.52071e-13
-3.25221e-19
4.51579e-19
1.52071e-13
7.88196e-19
-8.36005e-19
1.52071e-13
-6.02027e-19
7.32588e-19
1.52072e-13
1.05992e-18
-9.86104e-19
1.52072e-13
-8.0586e-19
9.01114e-19
1.52072e-13
1.19325e-18
-7.06652e-19
1.52072e-13
-1.51861e-18
1.09642e-18
1.52071e-13
9.09506e-19
-6.04864e-19
1.52072e-13
-1.21547e-18
9.58218e-19
1.52071e-13
8.59183e-19
1.82996e-20
-1.6749e-18
8.31448e-19
1.14683e-13
-1.09267e-13
1.35275e-13
1.10472e-13
-4.97389e-15
7.08043e-15
1.12972e-13
2.99843e-15
-4.24907e-15
1.11428e-13
-1.84125e-15
2.61373e-15
1.12378e-13
1.12752e-15
-1.60224e-15
1.11792e-13
-6.89254e-16
9.85677e-16
1.12158e-13
4.20745e-16
-6.12373e-16
1.11927e-13
-2.54539e-16
3.77589e-16
1.12072e-13
1.50907e-16
-2.26991e-16
1.11982e-13
-8.71157e-17
1.34014e-16
1.12036e-13
4.81086e-17
-7.6321e-17
1.12004e-13
-2.56207e-17
4.24578e-17
1.12021e-13
1.27502e-17
-2.27525e-17
1.12012e-13
-6.58216e-18
1.0811e-17
1.12017e-13
3.21232e-18
-5.56779e-18
1.12015e-13
-1.40157e-18
2.84438e-18
1.12016e-13
8.81562e-19
-1.39369e-18
1.12015e-13
-6.62309e-19
7.97778e-19
1.12015e-13
5.76712e-19
-5.46617e-19
1.12015e-13
-4.67809e-19
5.06114e-19
1.12015e-13
3.89746e-19
-3.67944e-19
1.12016e-13
-1.7499e-19
4.1162e-20
1.12015e-13
8.53784e-20
9.93472e-20
1.12016e-13
7.60203e-20
-2.3235e-19
1.12015e-13
-1.74854e-19
3.31742e-19
1.12016e-13
2.58184e-19
-3.88164e-19
1.12016e-13
-2.63082e-19
3.67376e-19
1.12016e-13
6.33962e-19
-6.98323e-19
1.12016e-13
-5.21798e-19
6.13821e-19
1.12017e-13
9.43179e-19
-8.61367e-19
1.12017e-13
-8.57931e-19
7.70985e-19
1.12017e-13
1.47326e-18
-7.07341e-19
1.12017e-13
-1.87315e-18
1.03391e-18
1.12016e-13
1.5087e-18
-6.13403e-19
1.12016e-13
-1.7993e-18
8.96119e-19
1.12016e-13
1.85015e-18
-2.0727e-19
-2.1828e-18
9.01573e-19
5.27515e-14
7.42067e-14
4.69525e-14
3.7503e-15
5.04398e-14
-2.25445e-15
4.82958e-14
1.38711e-15
4.96094e-14
-8.5039e-16
4.8805e-14
5.23177e-16
4.92982e-14
-3.25058e-16
4.89982e-14
2.00164e-16
4.9177e-14
-1.20034e-16
4.90731e-14
7.06462e-17
4.91309e-14
-3.99432e-17
4.90998e-14
2.20142e-17
4.91155e-14
-1.16942e-17
4.91075e-14
5.48222e-18
4.91114e-14
-2.79656e-18
4.91097e-14
1.44665e-18
4.91107e-14
-7.21093e-19
4.911e-14
4.24821e-19
4.91106e-14
-3.14354e-19
4.91101e-14
2.76774e-19
4.91105e-14
-2.02823e-19
4.91104e-14
3.76094e-20
4.91104e-14
5.79491e-20
4.91106e-14
-1.27661e-19
4.91103e-14
1.88966e-19
4.91106e-14
-2.23434e-19
4.91103e-14
2.29724e-19
4.91111e-14
-3.712e-19
4.91105e-14
3.58796e-19
4.91115e-14
-4.48006e-19
4.91106e-14
4.59117e-19
4.91121e-14
-4.0972e-19
4.91102e-14
5.47405e-19
4.91116e-14
-4.07171e-19
4.91099e-14
5.25599e-19
4.91116e-14
-1.83752e-19
5.36843e-19
6.69263e-14
1.17022e-13
5.69581e-14
6.20246e-14
5.58982e-15
3.06237e-15
6.49733e-14
-3.36874e-15
-1.8344e-15
6.31612e-14
2.06903e-15
1.13025e-15
6.42711e-14
-1.26694e-15
-6.93228e-16
6.35923e-14
7.76584e-16
4.27779e-16
6.4007e-14
-4.77066e-16
-2.67867e-16
6.3756e-14
2.89665e-16
1.66249e-16
6.39047e-14
-1.71073e-16
-9.97375e-17
6.38191e-14
9.82307e-17
5.86817e-17
6.3866e-14
-5.41058e-17
-3.3275e-17
6.38413e-14
2.86356e-17
1.8413e-17
6.38534e-14
-1.44999e-17
-9.84219e-18
6.38472e-14
6.77994e-18
4.36246e-18
6.38502e-14
-3.40955e-18
-2.27498e-18
6.3849e-14
1.71441e-18
1.13582e-18
6.38498e-14
-1.01262e-18
-5.60232e-19
6.38492e-14
7.25661e-19
3.06551e-19
6.38497e-14
-6.13774e-19
-2.17639e-19
6.38493e-14
5.3967e-19
2.20675e-19
6.38497e-14
-4.27785e-19
-1.6219e-19
6.38495e-14
1.97254e-19
-1.48867e-20
6.38496e-14
-5.33809e-20
8.46359e-20
6.38497e-14
-8.71633e-20
-1.35166e-19
6.38495e-14
2.1716e-19
1.82917e-19
6.38498e-14
-3.12822e-19
-2.00205e-19
6.38495e-14
3.6887e-19
1.75195e-19
6.38502e-14
-6.30638e-19
-3.27229e-19
6.38497e-14
6.33988e-19
2.63565e-19
6.38506e-14
-8.57837e-19
-3.38654e-19
6.38498e-14
9.71327e-19
2.86918e-19
6.38513e-14
-1.2095e-18
-1.26279e-19
6.38494e-14
1.59598e-18
2.88532e-19
6.38509e-14
-1.44385e-18
-4.75213e-20
6.3849e-14
1.70328e-18
2.04598e-19
6.38509e-14
-1.45698e-18
2.9719e-19
1.80908e-18
2.85068e-20
1.53211e-13
1.54133e-13
1.11653e-13
1.51433e-13
8.3277e-15
6.1214e-15
1.52468e-13
-4.99375e-15
-3.65959e-15
1.51826e-13
3.07195e-15
2.25337e-15
1.52222e-13
-1.8833e-15
-1.38151e-15
1.51978e-13
1.16014e-15
8.5172e-16
1.52131e-13
-7.22731e-16
-5.32296e-16
1.52033e-13
4.46663e-16
3.30085e-16
1.52096e-13
-2.67674e-16
-1.98241e-16
1.52056e-13
1.57272e-16
1.16918e-16
1.5208e-13
-8.9313e-17
-6.66829e-17
1.52066e-13
4.94173e-17
3.7129e-17
1.52073e-13
-2.65022e-17
-2.00853e-17
1.52068e-13
1.20769e-17
9.04335e-18
1.52071e-13
-6.28917e-18
-4.7754e-18
1.5207e-13
3.21166e-18
2.41351e-18
1.52071e-13
-1.61278e-18
-1.18325e-18
1.5207e-13
9.10778e-19
6.30772e-19
1.52071e-13
-6.40524e-19
-4.18755e-19
1.52071e-13
6.19571e-19
4.39938e-19
1.52071e-13
-4.56395e-19
-3.20832e-19
1.52071e-13
3.99715e-20
-7.94653e-21
1.52071e-13
1.41148e-19
1.28888e-19
1.52071e-13
-2.82479e-19
-2.241e-19
1.52071e-13
4.16296e-19
3.12791e-19
1.52071e-13
-4.8079e-19
-3.46955e-19
1.52071e-13
4.61301e-19
3.08752e-19
1.52071e-13
-8.33043e-19
-6.00273e-19
1.52071e-13
7.38683e-19
5.0141e-19
1.52072e-13
-9.24422e-19
-6.55873e-19
1.52072e-13
8.68001e-19
5.61127e-19
1.52072e-13
-5.92198e-19
-2.49299e-19
1.52072e-13
1.01277e-18
5.68927e-19
1.52071e-13
-4.84701e-19
-1.21079e-19
1.52072e-13
8.4716e-19
4.18381e-19
1.52071e-13
1.7047e-19
5.02329e-19
6.19566e-19
1.03386e-19
2.09643e-13
1.32661e-13
1.32661e-13
2.11436e-13
7.43194e-15
7.432e-15
2.10325e-13
-4.43875e-15
-4.43883e-15
2.11004e-13
2.73293e-15
2.73302e-15
2.10589e-13
-1.67579e-15
-1.67587e-15
2.10846e-13
1.0343e-15
1.03417e-15
2.10684e-13
-6.47871e-16
-6.47945e-16
2.10783e-13
4.02671e-16
4.02436e-16
2.10725e-13
-2.41422e-16
-2.41557e-16
2.10759e-13
1.41954e-16
1.4233e-16
2.1074e-13
-8.07706e-17
-8.09968e-17
2.1075e-13
4.48131e-17
4.50464e-17
2.10744e-13
-2.42101e-17
-2.43176e-17
2.10746e-13
1.05421e-17
1.07349e-17
2.10745e-13
-5.5871e-18
-5.67078e-18
2.10746e-13
2.81294e-18
2.87394e-18
2.10745e-13
-1.40287e-18
-1.4018e-18
2.10746e-13
7.40601e-19
7.38997e-19
2.10746e-13
-5.078e-19
-4.95742e-19