/*--------------------------------*- C++ -*----------------------------------*\
  =========                 |
  \\      /  F ield         | OpenFOAM: The Open Source CFD Toolbox
   \\    /   O peration     | Website:  https://openfoam.org
    \\  /    A nd           | Version:  13
     \\/     M anipulation  |
\*---------------------------------------------------------------------------*/
FoamFile
{
    format      ascii;
    class       volVectorField;
    location    "30";
    object      U;
}
// * * * * * * * * * * * * * * * * * * * * * * * * * * * * * * * * * * * * * //

dimensions      [0 1 -1 0 0 0 0];

internalField   nonuniform List<vector> 
3700
(
(0.000194574 7.40098e-06 7.40098e-06)
(0.000268686 3.50844e-07 3.50843e-07)
(0.000222392 -2.13265e-07 -2.13267e-07)
(0.000250591 1.30706e-07 1.30707e-07)
(0.000233286 -8.0063e-08 -8.00649e-08)
(0.000243909 4.90587e-08 4.90603e-08)
(0.000237391 -3.01054e-08 -3.01022e-08)
(0.000241399 1.83566e-08 1.83534e-08)
(0.000238939 -1.09881e-08 -1.09886e-08)
(0.000240431 6.44435e-09 6.44481e-09)
(0.000239539 -3.66142e-09 -3.66391e-09)
(0.000240056 2.01485e-09 2.01752e-09)
(0.000239766 -1.0704e-09 -1.07136e-09)
(0.000239919 5.38617e-10 5.40742e-10)
(0.00023984 -2.74903e-10 -2.75728e-10)
(0.00023988 1.38247e-10 1.38271e-10)
(0.000239862 -7.33244e-11 -7.32773e-11)
(0.00023987 4.62621e-11 4.62534e-11)
(0.000239867 -3.35463e-11 -3.3434e-11)
(0.000239869 2.79003e-11 2.77296e-11)
(0.000239867 -2.0677e-11 -2.04878e-11)
(0.00023987 9.53626e-12 9.32759e-12)
(0.000239868 -2.59269e-12 -2.48413e-12)
(0.00023987 -5.40875e-12 -5.52219e-12)
(0.000239867 1.12865e-11 1.13483e-11)
(0.00023987 -1.58987e-11 -1.59648e-11)
(0.000239867 1.92607e-11 1.93313e-11)
(0.000239872 -3.34067e-11 -3.34503e-11)
(0.000239868 3.49775e-11 3.50391e-11)
(0.000239875 -4.95169e-11 -4.96892e-11)
(0.000239869 5.2027e-11 5.22649e-11)
(0.000239878 -6.68726e-11 -6.71168e-11)
(0.00023987 8.37792e-11 8.41016e-11)
(0.000239874 -7.35707e-11 -7.39756e-11)
(0.000239868 8.3473e-11 8.38078e-11)
(0.000239871 -7.84702e-11 -7.88566e-11)
(0.000239868 9.57924e-11 9.52925e-11)
(0.00039774 1.44309e-05 1.17208e-05)
(0.000549719 6.58674e-07 6.30177e-07)
(0.000455363 -3.96223e-07 -3.82388e-07)
(0.000513044 2.43617e-07 2.3404e-07)
(0.000477628 -1.49281e-07 -1.42947e-07)
(0.000499383 9.16927e-08 8.68879e-08)
(0.000486033 -5.66609e-08 -5.27347e-08)
(0.000494218 3.47121e-08 3.18494e-08)
(0.000489224 -2.07217e-08 -1.88001e-08)
(0.000492233 1.2099e-08 1.09398e-08)
(0.000490449 -6.80976e-09 -6.13519e-09)
(0.000491475 3.71852e-09 3.34814e-09)
(0.000490903 -1.95295e-09 -1.78011e-09)
(0.000491204 9.30773e-10 9.21015e-10)
(0.000491049 -4.74688e-10 -4.95845e-10)
(0.000491127 2.36657e-10 2.47649e-10)
(0.000491093 -1.26963e-10 -1.33493e-10)
(0.000491108 7.95341e-11 9.59041e-11)
(0.000491101 -6.12343e-11 -6.7373e-11)
(0.000491105 5.35442e-11 6.44879e-11)
(0.000491102 -4.09282e-11 -5.46061e-11)
(0.000491106 1.26291e-11 3.32752e-11)
(0.000491103 2.58912e-12 -3.60879e-11)
(0.000491107 -1.64241e-11 1.21084e-11)
(0.000491102 2.84652e-11 -4.59204e-12)
(0.000491108 -3.62501e-11 -4.84699e-12)
(0.000491101 3.89454e-11 5.86299e-13)
(0.000491112 -6.8173e-11 -7.46861e-11)
(0.000491102 6.52622e-11 4.98195e-11)
(0.000491118 -8.68566e-11 -1.44923e-10)
(0.000491102 8.98662e-11 1.02619e-10)
(0.000491123 -9.93033e-11 -1.99618e-10)
(0.000491104 1.33367e-10 2.8341e-10)
(0.000491115 -1.05259e-10 -1.9251e-10)
(0.000491102 1.30708e-10 2.55098e-10)
(0.000491111 -8.73385e-11 -2.5906e-10)
(0.000491104 1.34678e-10 3.38102e-10)
(0.000516596 1.30426e-05 1.1704e-05)
(0.000714435 6.76833e-07 6.89084e-07)
(0.000592057 -4.06048e-07 -4.18286e-07)
(0.000667011 2.50022e-07 2.56093e-07)
(0.000620972 -1.53326e-07 -1.564e-07)
(0.000649269 9.45419e-08 9.51496e-08)
(0.000631896 -5.89997e-08 -5.77539e-08)
(0.000642528 3.64921e-08 3.48203e-08)
(0.000636072 -2.18591e-08 -2.05288e-08)
(0.000639938 1.28216e-08 1.19044e-08)
(0.000637664 -7.256e-09 -6.67615e-09)
(0.000638962 3.99681e-09 3.63019e-09)
(0.000638246 -2.12931e-09 -1.94219e-09)
(0.000638619 9.55045e-10 9.87693e-10)
(0.000638427 -4.93744e-10 -5.31622e-10)
(0.000638524 2.50219e-10 2.79924e-10)
(0.000638481 -1.27368e-10 -1.53125e-10)
(0.000638501 7.18619e-11 1.06663e-10)
(0.000638492 -5.32536e-11 -7.6697e-11)
(0.000638497 5.03136e-11 7.09169e-11)
(0.000638493 -3.70035e-11 -5.86412e-11)
(0.000638497 2.26341e-12 4.14201e-11)
(0.000638494 1.5568e-11 -3.78069e-11)
(0.000638499 -2.59708e-11 1.68051e-11)
(0.000638492 3.79436e-11 -6.06822e-12)
(0.000638501 -4.33044e-11 -5.61393e-12)
(0.00063849 4.31296e-11 1.17041e-11)
(0.000638506 -6.76793e-11 -6.59964e-11)
(0.00063849 6.34512e-11 6.2985e-11)
(0.000638513 -6.93202e-11 -1.30572e-10)
(0.000638489 7.22412e-11 1.22393e-10)
(0.000638519 -4.01091e-11 -1.93842e-10)
(0.000638492 6.82645e-11 2.62996e-10)
(0.000638511 -3.54772e-11 -2.19828e-10)
(0.000638491 6.08456e-11 2.66988e-10)
(0.000638505 2.78601e-11 -2.75688e-10)
(0.000638496 3.12479e-11 3.33983e-10)
(0.00058515 8.42833e-06 1.13569e-05)
(0.000809561 4.62819e-07 6.96056e-07)
(0.000671054 -2.76816e-07 -4.22675e-07)
(0.000755979 1.70619e-07 2.58928e-07)
(0.000703801 -1.04652e-07 -1.5822e-07)
(0.000735886 6.46419e-08 9.64073e-08)
(0.000716179 -4.05918e-08 -5.86327e-08)
(0.000728223 2.52919e-08 3.53822e-08)
(0.000720934 -1.51518e-08 -2.08792e-08)
(0.000725281 8.90258e-09 1.21013e-08)
(0.00072274 -5.04506e-09 -6.78648e-09)
(0.000724182 2.78232e-09 3.68507e-09)
(0.000723393 -1.49461e-09 -1.96837e-09)
(0.0007238 6.36589e-10 9.92792e-10)
(0.000723591 -3.39158e-10 -5.31322e-10)
(0.000723696 1.64477e-10 2.83158e-10)
(0.00072365 -8.27698e-11 -1.55454e-10)
(0.000723671 4.4286e-11 1.07161e-10)
(0.000723661 -3.18296e-11 -7.76795e-11)
(0.000723667 3.44865e-11 7.03545e-11)
(0.000723663 -2.58929e-11 -5.72269e-11)
(0.000723667 -3.46697e-12 4.01167e-11)
(0.000723663 1.34937e-11 -3.3591e-11)
(0.000723669 -2.13466e-11 1.39875e-11)
(0.000723661 2.86238e-11 -2.15713e-12)
(0.000723672 -3.02667e-11 -9.96683e-12)
(0.000723658 2.37596e-11 1.75609e-11)
(0.000723677 -5.22998e-11 -6.40031e-11)
(0.000723657 3.65689e-11 6.4597e-11)
(0.000723685 -5.03327e-11 -1.19501e-10)
(0.000723656 3.42791e-11 1.19117e-10)
(0.000723691 -7.54583e-12 -1.78639e-10)
(0.000723659 3.91546e-11 2.41092e-10)
(0.000723683 1.54286e-11 -2.10232e-10)
(0.000723659 1.51977e-11 2.52078e-10)
(0.000723676 7.12001e-11 -2.56196e-10)
(0.000723667 -1.56325e-11 3.08589e-10)
(0.000616867 2.89106e-06 1.11809e-05)
(0.000853606 1.61547e-07 6.96283e-07)
(0.000707645 -9.64185e-08 -4.22837e-07)
(0.000797186 5.94435e-08 2.59055e-07)
(0.000742164 -3.64432e-08 -1.58319e-07)
(0.000776005 2.25907e-08 9.64908e-08)
(0.000755215 -1.42477e-08 -5.87467e-08)
(0.000767912 8.92806e-09 3.54928e-08)
(0.000760242 -5.29233e-09 -2.09542e-08)
(0.000764806 3.06023e-09 1.21594e-08)
(0.000762146 -1.73377e-09 -6.81802e-09)
(0.000763651 9.24965e-10 3.7094e-09)
(0.000762831 -5.13368e-10 -1.97711e-09)
(0.000763252 1.8089e-10 9.99731e-10)
(0.000763036 -1.10322e-10 -5.35799e-10)
(0.000763145 4.84241e-11 2.8187e-10)
(0.000763097 -2.97711e-11 -1.53385e-10)
(0.000763119 1.47064e-11 1.06603e-10)
(0.000763108 -1.15419e-11 -7.62351e-11)
(0.000763114 1.47368e-11 7.00817e-11)
(0.000763111 -1.09486e-11 -5.75071e-11)
(0.000763114 4.35857e-13 3.71281e-11)
(0.00076311 4.25449e-12 -3.32784e-11)
(0.000763117 -6.29693e-12 1.19534e-11)
(0.000763108 1.01746e-11 -1.0828e-12)
(0.00076312 -1.01632e-11 -1.05793e-11)
(0.000763105 8.81293e-12 1.28831e-11)
(0.000763125 -1.78466e-11 -7.01728e-11)
(0.000763103 1.23094e-11 5.94375e-11)
(0.000763133 -1.16329e-11 -1.27072e-10)
(0.000763101 8.58809e-12 1.10246e-10)
(0.00076314 1.42486e-11 -1.80649e-10)
(0.000763104 3.40856e-12 2.52769e-10)
(0.000763131 2.03937e-11 -1.97942e-10)
(0.000763106 -6.34581e-12 2.49868e-10)
(0.000763124 4.86044e-11 -2.46518e-10)
(0.000763115 -4.32482e-11 3.13779e-10)
(0.000616867 -2.89095e-06 1.11809e-05)
(0.000853606 -1.61567e-07 6.96285e-07)
(0.000707644 9.64859e-08 -4.22845e-07)
(0.000797186 -5.94984e-08 2.59061e-07)
(0.000742164 3.65073e-08 -1.58326e-07)
(0.000776005 -2.23663e-08 9.65019e-08)
(0.000755215 1.39932e-08 -5.87425e-08)
(0.000767912 -8.69168e-09 3.54828e-08)
(0.000760243 5.32393e-09 -2.09597e-08)
(0.000764805 -3.24739e-09 1.21637e-08)
(0.000762147 1.83975e-09 -6.82596e-09)
(0.000763651 -1.08331e-09 3.71746e-09)
(0.000762831 5.49491e-10 -1.98032e-09)
(0.000763252 -3.05418e-10 1.00369e-09)
(0.000763036 1.38185e-10 -5.36108e-10)
(0.000763145 -7.10382e-11 2.83024e-10)
(0.000763097 2.37687e-11 -1.53635e-10)
(0.000763119 -1.50191e-11 1.06567e-10)
(0.000763108 8.28721e-12 -7.59975e-11)
(0.000763114 -6.85651e-12 6.95334e-11)
(0.000763111 6.38025e-12 -5.67902e-11)
(0.000763114 6.88333e-12 3.68061e-11)
(0.00076311 -5.12156e-12 -3.26784e-11)
(0.000763117 1.10185e-11 1.17567e-11)
(0.000763108 -9.56419e-12 -8.52032e-13)
(0.00076312 1.01109e-11 -1.0886e-11)
(0.000763105 -5.3205e-13 1.39614e-11)
(0.000763125 2.5069e-11 -6.90983e-11)
(0.000763103 -8.23949e-12 6.03825e-11)
(0.000763133 3.89321e-11 -1.25425e-10)
(0.000763101 -1.09098e-11 1.11624e-10)
(0.00076314 3.91029e-11 -1.79797e-10)
(0.000763104 -4.75131e-11 2.49968e-10)
(0.000763131 1.06757e-11 -1.9975e-10)
(0.000763106 -2.59263e-11 2.4954e-10)
(0.000763124 1.14822e-11 -2.47051e-10)
(0.000763115 -7.57453e-11 3.11781e-10)
(0.000585149 -8.4283e-06 1.13569e-05)
(0.000809562 -4.62838e-07 6.96056e-07)
(0.000671053 2.76877e-07 -4.22693e-07)
(0.000755981 -1.70667e-07 2.58945e-07)
(0.0007038 1.04707e-07 -1.58238e-07)
(0.000735887 -6.44334e-08 9.64292e-08)
(0.000716179 4.03101e-08 -5.86198e-08)
(0.000728222 -2.50203e-08 3.53593e-08)
(0.000720936 1.5145e-08 -2.08937e-08)
(0.000725279 -9.04063e-09 1.21159e-08)
(0.000722741 5.12416e-09 -6.80754e-09)
(0.000724182 -2.90592e-09 3.70895e-09)
(0.000723393 1.51558e-09 -1.97702e-09)
(0.0007238 -7.46117e-10 1.00481e-09)
(0.000723591 3.61083e-10 -5.33656e-10)
(0.000723696 -1.80162e-10 2.85941e-10)
(0.00072365 7.75169e-11 -1.55715e-10)
(0.000723671 -4.44597e-11 1.07292e-10)
(0.000723661 3.02346e-11 -7.68362e-11)
(0.000723667 -2.72855e-11 6.92359e-11)
(0.000723663 2.15253e-11 -5.59469e-11)
(0.000723667 9.13295e-12 3.88704e-11)
(0.000723663 -1.48597e-11 -3.28231e-11)
(0.000723669 2.58363e-11 1.35882e-11)
(0.000723661 -2.89563e-11 -2.04735e-12)
(0.000723672 3.11544e-11 -1.02384e-11)
(0.000723658 -1.95415e-11 1.79419e-11)
(0.000723677 5.83392e-11 -6.30425e-11)
(0.000723657 -3.61341e-11 6.49129e-11)
(0.000723684 7.42389e-11 -1.18244e-10)
(0.000723655 -4.19566e-11 1.19728e-10)
(0.000723691 6.00129e-11 -1.78344e-10)
(0.000723658 -8.00873e-11 2.39545e-10)
(0.000723683 2.11402e-11 -2.1218e-10)
(0.000723659 -4.83978e-11 2.52593e-10)
(0.000723676 -7.10959e-12 -2.5715e-10)
(0.000723667 -9.06901e-11 3.08769e-10)
(0.000516595 -1.30426e-05 1.17039e-05)
(0.000714436 -6.76832e-07 6.89076e-07)
(0.000592056 4.06089e-07 -4.18305e-07)
(0.000667013 -2.50057e-07 2.56114e-07)
(0.00062097 1.53374e-07 -1.56431e-07)
(0.000649271 -9.43327e-08 9.51768e-08)
(0.000631896 5.86383e-08 -5.77463e-08)
(0.000642526 -3.61612e-08 3.48047e-08)
(0.000636074 2.17843e-08 -2.05539e-08)
(0.000639936 -1.28824e-08 1.19324e-08)
(0.000637666 7.29564e-09 -6.70509e-09)
(0.000638961 -4.07176e-09 3.66737e-09)
(0.000638246 2.12814e-09 -1.95439e-09)
(0.000638619 -1.04511e-09 1.00825e-09)
(0.000638427 5.1238e-10 -5.40412e-10)
(0.000638524 -2.52557e-10 2.84617e-10)
(0.000638481 1.22057e-10 -1.54174e-10)
(0.000638501 -7.25694e-11 1.08364e-10)
(0.000638491 5.33314e-11 -7.57233e-11)
(0.000638497 -4.51816e-11 7.05879e-11)
(0.000638493 3.44164e-11 -5.85955e-11)
(0.000638497 2.00346e-12 3.96923e-11)
(0.000638494 -1.5087e-11 -3.91163e-11)
(0.000638499 2.98276e-11 1.76335e-11)
(0.000638492 -3.84102e-11 -8.10355e-12)
(0.000638501 4.40118e-11 -3.84179e-12)
(0.00063849 -3.81728e-11 5.6187e-12)
(0.000638506 7.75706e-11 -6.55899e-11)
(0.00063849 -6.22361e-11 5.55981e-11)
(0.000638513 9.71646e-11 -1.28047e-10)
(0.000638489 -7.9117e-11 1.10031e-10)
(0.000638519 9.63751e-11 -1.89213e-10)
(0.000638492 -1.22719e-10 2.63914e-10)
(0.000638511 7.19646e-11 -2.1021e-10)
(0.000638491 -9.93565e-11 2.64842e-10)
(0.000638505 4.20382e-11 -2.7091e-10)
(0.000638496 -1.29307e-10 3.40117e-10)
(0.000397739 -1.44309e-05 1.17207e-05)
(0.00054972 -6.58649e-07 6.30178e-07)
(0.000455361 3.96239e-07 -3.82402e-07)
(0.000513045 -2.43632e-07 2.34047e-07)
(0.000477626 1.49313e-07 -1.42951e-07)
(0.000499384 -9.15422e-08 8.69858e-08)
(0.000486033 5.62936e-08 -5.28326e-08)
(0.000494216 -3.43822e-08 3.18859e-08)
(0.000489226 2.06068e-08 -1.8851e-08)
(0.000492231 -1.20774e-08 1.09603e-08)
(0.00049045 6.81362e-09 -6.1576e-09)
(0.000491474 -3.74192e-09 3.37223e-09)
(0.000490903 1.93452e-09 -1.792e-09)
(0.000491204 -9.8923e-10 9.24192e-10)
(0.000491049 4.87764e-10 -4.93438e-10)
(0.000491127 -2.27321e-10 2.56452e-10)
(0.000491092 1.23907e-10 -1.38211e-10)
(0.000491108 -8.10674e-11 9.72745e-11)
(0.000491101 6.32354e-11 -6.81772e-11)
(0.000491105 -5.09778e-11 6.38452e-11)
(0.000491102 3.99168e-11 -5.33942e-11)
(0.000491106 -1.08548e-11 3.41742e-11)
(0.000491103 -9.18069e-13 -3.42491e-11)
(0.000491107 1.82413e-11 1.42331e-11)
(0.000491102 -2.8416e-11 -6.11988e-12)
(0.000491108 3.62956e-11 -4.14969e-12)
(0.0004911 -3.51638e-11 3.25692e-12)
(0.000491112 7.58146e-11 -6.24902e-11)
(0.000491101 -6.33534e-11 4.86879e-11)
(0.000491117 1.05345e-10 -1.19889e-10)
(0.000491102 -9.29465e-11 9.63903e-11)
(0.000491123 1.41132e-10 -1.7335e-10)
(0.000491104 -1.78734e-10 2.44063e-10)
(0.000491115 1.32907e-10 -1.8448e-10)
(0.000491102 -1.61622e-10 2.37921e-10)
(0.000491111 1.45723e-10 -2.40236e-10)
(0.000491104 -1.96639e-10 3.12135e-10)
(0.000194574 -7.401e-06 7.40099e-06)
(0.000268686 -3.50827e-07 3.50853e-07)
(0.000222391 2.13269e-07 -2.13263e-07)
(0.000250591 -1.30708e-07 1.30705e-07)
(0.000233285 8.00737e-08 -8.00601e-08)
(0.000243909 -4.90169e-08 4.90784e-08)
(0.000237392 2.9939e-08 -3.01952e-08)
(0.000241398 -1.82021e-08 1.84321e-08)
(0.000238939 1.09315e-08 -1.10197e-08)
(0.000240431 -6.41705e-09 6.46643e-09)
(0.000239539 3.66003e-09 -3.66349e-09)
(0.000240055 -2.01601e-09 2.01851e-09)
(0.000239766 1.06034e-09 -1.07565e-09)
(0.000239919 -5.59111e-10 5.31487e-10)
(0.00023984 2.79052e-10 -2.72682e-10)
(0.00023988 -1.32572e-10 1.42158e-10)
(0.000239862 7.30864e-11 -7.35733e-11)
(0.00023987 -4.70972e-11 4.6018e-11)
(0.000239867 3.50421e-11 -3.31945e-11)
(0.000239869 -2.68843e-11 2.82407e-11)
(0.000239867 1.98356e-11 -2.11847e-11)
(0.000239869 -9.5064e-12 9.54302e-12)
(0.000239868 2.75974e-12 -2.42205e-12)
(0.00023987 5.90295e-12 -5.10767e-12)
(0.000239867 -1.15305e-11 1.09799e-11)
(0.00023987 1.62194e-11 -1.56385e-11)
(0.000239867 -1.98887e-11 1.85966e-11)
(0.000239872 3.42731e-11 -3.23983e-11)
(0.000239868 -3.55756e-11 3.41044e-11)
(0.000239875 5.21348e-11 -4.71968e-11)
(0.000239869 -5.45659e-11 4.99924e-11)
(0.000239878 8.00697e-11 -6.02608e-11)
(0.00023987 -9.61312e-11 7.6181e-11)
(0.000239874 8.61312e-11 -6.77948e-11)
(0.000239868 -9.38536e-11 7.85459e-11)
(0.000239871 1.02278e-10 -6.71586e-11)
(0.000239868 -1.10347e-10 9.23505e-11)
(0.00039774 1.17208e-05 1.44309e-05)
(0.000549719 6.30178e-07 6.58673e-07)
(0.000455363 -3.82386e-07 -3.96227e-07)
(0.000513044 2.34038e-07 2.43621e-07)
(0.000477628 -1.42944e-07 -1.49286e-07)
(0.000499383 8.68874e-08 9.16922e-08)
(0.000486033 -5.27401e-08 -5.66533e-08)
(0.000494218 3.18562e-08 3.47001e-08)
(0.000489224 -1.87998e-08 -2.07239e-08)
(0.000492233 1.0938e-08 1.21054e-08)
(0.000490449 -6.13135e-09 -6.81818e-09)
(0.000491475 3.344e-09 3.72758e-09)
(0.000490903 -1.7785e-09 -1.95633e-09)
(0.000491204 9.1691e-10 9.38449e-10)
(0.000491049 -4.93919e-10 -4.77969e-10)
(0.000491127 2.47378e-10 2.37422e-10)
(0.000491093 -1.33571e-10 -1.26755e-10)
(0.000491108 9.5923e-11 7.94521e-11)
(0.000491101 -6.75356e-11 -6.07747e-11)
(0.000491105 6.47292e-11 5.30223e-11)
(0.000491102 -5.48661e-11 -4.03821e-11)
(0.000491106 3.35701e-11 1.1982e-11)
(0.000491103 -3.6245e-11 2.86938e-12)
(0.000491107 1.23071e-11 -1.68243e-11)
(0.000491102 -4.68995e-12 2.86522e-11)
(0.000491108 -4.74231e-12 -3.64497e-11)
(0.000491101 5.22092e-13 3.89824e-11)
(0.000491112 -7.45683e-11 -6.84709e-11)
(0.000491102 4.97614e-11 6.53031e-11)
(0.000491118 -1.44369e-10 -8.82764e-11)
(0.000491102 1.02105e-10 9.09624e-11)
(0.000491123 -1.98936e-10 -1.00763e-10)
(0.000491104 2.82608e-10 1.35025e-10)
(0.000491115 -1.91443e-10 -1.07442e-10)
(0.000491102 2.54094e-10 1.32944e-10)
(0.000491111 -2.58171e-10 -8.8881e-11)
(0.000491104 3.38739e-10 1.34317e-10)
(0.000906067 2.4997e-05 2.4997e-05)
(0.00125324 1.21449e-06 1.2145e-06)
(0.00103872 -7.29919e-07 -7.29922e-07)
(0.00117016 4.49e-07 4.49004e-07)
(0.00108942 -2.75362e-07 -2.75366e-07)
(0.00113904 1.69568e-07 1.69557e-07)
(0.0011086 -1.0504e-07 -1.05035e-07)
(0.00112721 6.44212e-08 6.43998e-08)
(0.00111591 -3.85211e-08 -3.85225e-08)
(0.00112268 2.24341e-08 2.24501e-08)
(0.00111869 -1.26153e-08 -1.2625e-08)
(0.00112098 6.84154e-09 6.85215e-09)
(0.00111971 -3.5658e-09 -3.57019e-09)
(0.00112038 1.65841e-09 1.67097e-09)
(0.00112003 -8.27927e-10 -8.34522e-10)
(0.00112021 4.20303e-10 4.2272e-10)
(0.00112013 -2.28313e-10 -2.28182e-10)
(0.00112017 1.40044e-10 1.40007e-10)
(0.00112015 -1.11822e-10 -1.11339e-10)
(0.00112016 9.43385e-11 9.39029e-11)
(0.00112015 -6.73643e-11 -6.69675e-11)
(0.00112016 1.74246e-11 1.69127e-11)
(0.00112015 2.2692e-11 2.28929e-11)
(0.00112016 -4.24997e-11 -4.29869e-11)
(0.00112015 6.87656e-11 6.89314e-11)
(0.00112016 -8.39947e-11 -8.41775e-11)
(0.00112015 9.88171e-11 9.86393e-11)
(0.00112017 -1.1647e-10 -1.16899e-10)
(0.00112014 1.34e-10 1.33818e-10)
(0.00112018 -1.23249e-10 -1.26112e-10)
(0.00112014 1.69614e-10 1.71555e-10)
(0.00112019 -1.40379e-10 -1.43271e-10)
(0.00112015 1.73115e-10 1.75554e-10)
(0.00112018 -1.79508e-10 -1.84006e-10)
(0.00112015 1.96776e-10 2.01495e-10)
(0.00112017 -1.13015e-10 -1.1565e-10)
(0.00112016 1.61968e-10 1.6269e-10)
(0.00122904 2.46808e-05 2.79014e-05)
(0.00170092 1.31754e-06 1.41034e-06)
(0.00141023 -7.88816e-07 -8.47127e-07)
(0.00158858 4.85502e-07 5.21062e-07)
(0.00147898 -2.9765e-07 -3.19512e-07)
(0.00154637 1.83386e-07 1.9674e-07)
(0.001505 -1.14323e-07 -1.2209e-07)
(0.00153026 7.07438e-08 7.49294e-08)
(0.00151499 -4.24281e-08 -4.47092e-08)
(0.00152408 2.49612e-08 2.60041e-08)
(0.00151877 -1.42005e-08 -1.4555e-08)
(0.00152179 7.87287e-09 7.88558e-09)
(0.00152013 -4.23468e-09 -4.09277e-09)
(0.001521 1.92291e-09 1.87812e-09)
(0.00152055 -1.00646e-09 -9.44655e-10)
(0.00152078 5.08726e-10 4.78572e-10)
(0.00152067 -2.54954e-10 -2.56976e-10)
(0.00152072 1.4133e-10 1.60153e-10)
(0.0015207 -9.79244e-11 -1.27855e-10)
(0.00152071 9.698e-11 1.13363e-10)
(0.0015207 -7.13791e-11 -8.38628e-11)
(0.00152071 4.16659e-12 1.75013e-11)
(0.0015207 2.32114e-11 2.43934e-11)
(0.00152071 -4.52078e-11 -5.01748e-11)
(0.0015207 6.56673e-11 7.97329e-11)
(0.00152072 -7.48222e-11 -9.70989e-11)
(0.00152069 6.9744e-11 1.06013e-10)
(0.00152073 -1.30692e-10 -1.48105e-10)
(0.00152069 1.12963e-10 1.50961e-10)
(0.00152075 -1.43788e-10 -1.64638e-10)
(0.00152068 1.28761e-10 1.95559e-10)
(0.00152076 -8.26116e-11 -1.68195e-10)
(0.00152069 1.50353e-10 2.26956e-10)
(0.00152074 -5.77e-11 -1.99667e-10)
(0.00152069 1.17122e-10 2.43042e-10)
(0.00152073 4.84237e-11 -1.09162e-10)
(0.00152071 7.84737e-11 1.98413e-10)
(0.00142144 1.69277e-05 2.84962e-05)
(0.00196794 9.43334e-07 1.47309e-06)
(0.00163192 -5.6307e-07 -8.84631e-07)
(0.00183824 3.46872e-07 5.44173e-07)
(0.00171143 -2.12723e-07 -3.33708e-07)
(0.00178944 1.31403e-07 2.05572e-07)
(0.00174153 -8.24161e-08 -1.27867e-07)
(0.00177074 5.13136e-08 7.86601e-08)
(0.00175315 -3.07817e-08 -4.69613e-08)
(0.00176358 1.80971e-08 2.73516e-08)
(0.00175752 -1.03171e-08 -1.53031e-08)
(0.00176094 5.72137e-09 8.30973e-09)
(0.00175907 -3.1002e-09 -4.31297e-09)
(0.00176004 1.3326e-09 1.95488e-09)
(0.00175954 -7.13013e-10 -9.8443e-10)
(0.00175979 3.5301e-10 4.96181e-10)
(0.00175968 -1.78299e-10 -2.61337e-10)
(0.00175973 9.13905e-11 1.61199e-10)
(0.00175971 -6.19482e-11 -1.28306e-10)
(0.00175972 6.86268e-11 1.16974e-10)
(0.00175971 -5.00032e-11 -8.72916e-11)
(0.00175972 -5.28347e-12 1.14522e-11)
(0.00175971 2.58179e-11 3.03246e-11)
(0.00175973 -3.82919e-11 -5.80291e-11)
(0.00175971 5.34706e-11 8.73511e-11)
(0.00175973 -5.74647e-11 -1.03564e-10)
(0.0017597 4.98061e-11 1.06118e-10)
(0.00175975 -9.36253e-11 -1.62115e-10)
(0.00175969 7.51323e-11 1.53191e-10)
(0.00175976 -8.58109e-11 -1.79245e-10)
(0.00175968 7.03896e-11 1.9477e-10)
(0.00175977 -7.32242e-14 -1.62691e-10)
(0.00175969 5.4103e-11 2.31786e-10)
(0.00175976 2.99732e-11 -1.76215e-10)
(0.0017597 2.05424e-11 2.33078e-10)
(0.00175974 1.45014e-10 -6.56435e-11)
(0.00175972 -5.32617e-11 1.8495e-10)
(0.00151157 5.95971e-06 2.85349e-05)
(0.0020931 3.36643e-07 1.48926e-06)
(0.00173588 -2.00544e-07 -8.94263e-07)
(0.0019553 1.23567e-07 5.50089e-07)
(0.00182042 -7.57411e-08 -3.37311e-07)
(0.00190341 4.70046e-08 2.0777e-07)
(0.00185243 -2.96419e-08 -1.29338e-07)
(0.00188349 1.85563e-08 7.96488e-08)
(0.00186482 -1.10035e-08 -4.75665e-08)
(0.00187586 6.33344e-09 2.77361e-08)
(0.00186947 -3.60902e-09 -1.55165e-08)
(0.00187307 1.94409e-09 8.43854e-09)
(0.00187111 -1.08066e-09 -4.38286e-09)
(0.00187212 3.78034e-10 1.97958e-09)
(0.0018716 -2.3097e-10 -9.98725e-10)
(0.00187186 1.05569e-10 5.01544e-10)
(0.00187175 -6.56341e-11 -2.6097e-10)
(0.0018718 2.97855e-11 1.60455e-10)
(0.00187177 -2.10426e-11 -1.27196e-10)
(0.00187179 3.0475e-11 1.18011e-10)
(0.00187178 -2.20156e-11 -8.88633e-11)
(0.00187179 4.85427e-13 9.16135e-12)
(0.00187178 8.91059e-12 3.10563e-11)
(0.00187179 -1.02571e-11 -6.00868e-11)
(0.00187177 1.90068e-11 8.83414e-11)
(0.0018718 -1.99226e-11 -1.03499e-10)
(0.00187176 1.99311e-11 1.01904e-10)
(0.00187182 -2.9965e-11 -1.67621e-10)
(0.00187175 2.64841e-11 1.51112e-10)
(0.00187183 -1.27867e-11 -1.88216e-10)
(0.00187175 1.80477e-11 1.92162e-10)
(0.00187184 4.38082e-11 -1.63744e-10)
(0.00187175 -1.16613e-11 2.39403e-10)
(0.00187183 4.41269e-11 -1.65401e-10)
(0.00187176 -1.97054e-11 2.30701e-10)
(0.00187181 1.1035e-10 -5.10437e-11)
(0.00187179 -1.10585e-10 1.89354e-10)
(0.00151157 -5.95955e-06 2.85349e-05)
(0.0020931 -3.36698e-07 1.48926e-06)
(0.00173588 2.00677e-07 -8.94262e-07)
(0.0019553 -1.2369e-07 5.50088e-07)
(0.00182042 7.59052e-08 -3.37309e-07)
(0.00190341 -4.64418e-08 2.07755e-07)
(0.00185243 2.89198e-08 -1.29319e-07)
(0.00188349 -1.78994e-08 7.96282e-08)
(0.00186482 1.09873e-08 -4.75594e-08)
(0.00187586 -6.74476e-09 2.77407e-08)
(0.00186947 3.83973e-09 -1.5517e-08)
(0.00187307 -2.24984e-09 8.43628e-09)
(0.00187111 1.16219e-09 -4.38267e-09)
(0.00187212 -6.61095e-10 1.98175e-09)
(0.0018716 3.00546e-10 -9.98865e-10)
(0.00187186 -1.57821e-10 5.02405e-10)
(0.00187175 5.48467e-11 -2.61048e-10)
(0.0018718 -3.51238e-11 1.60529e-10)
(0.00187177 2.18944e-11 -1.27714e-10)
(0.00187179 -1.31652e-11 1.17762e-10)
(0.00187178 1.15109e-11 -8.85604e-11)
(0.00187179 9.53283e-12 9.71013e-12)
(0.00187178 -9.49543e-12 3.12611e-11)
(0.00187179 2.17825e-11 -6.03146e-11)
(0.00187177 -1.92857e-11 8.86051e-11)
(0.0018718 2.03725e-11 -1.03731e-10)
(0.00187176 -5.97118e-12 1.028e-10)
(0.00187182 4.71185e-11 -1.67354e-10)
(0.00187175 -2.16264e-11 1.52046e-10)
(0.00187183 7.6462e-11 -1.88775e-10)
(0.00187174 -3.0768e-11 1.9419e-10)
(0.00187184 8.848e-11 -1.66614e-10)
(0.00187175 -9.40227e-11 2.40227e-10)
(0.00187183 3.86168e-11 -1.69077e-10)
(0.00187176 -5.71373e-11 2.32585e-10)
(0.00187181 4.78731e-11 -5.59152e-11)
(0.00187179 -1.65676e-10 1.93905e-10)
(0.00142144 -1.69275e-05 2.84962e-05)
(0.00196794 -9.43373e-07 1.4731e-06)
(0.00163192 5.63175e-07 -8.84631e-07)
(0.00183824 -3.46969e-07 5.44173e-07)
(0.00171142 2.1286e-07 -3.33705e-07)
(0.00178944 -1.30855e-07 2.05518e-07)
(0.00174153 8.16554e-08 -1.278e-07)
(0.00177073 -5.06191e-08 7.85975e-08)
(0.00175315 3.06935e-08 -4.69384e-08)
(0.00176357 -1.84075e-08 2.73658e-08)
(0.00175752 1.04852e-08 -1.53061e-08)
(0.00176094 -5.96133e-09 8.30656e-09)
(0.00175907 3.14681e-09 -4.31323e-09)
(0.00176004 -1.58183e-09 1.96317e-09)
(0.00175954 7.72009e-10 -9.86289e-10)
(0.00175979 -3.87824e-10 4.97995e-10)
(0.00175968 1.67515e-10 -2.60875e-10)
(0.00175973 -9.61384e-11 1.61373e-10)
(0.00175971 6.46923e-11 -1.29337e-10)
(0.00175972 -5.38769e-11 1.16333e-10)
(0.00175971 4.18798e-11 -8.66533e-11)
(0.00175972 1.33783e-11 1.24597e-11)
(0.00175971 -2.52419e-11 3.04025e-11)
(0.00175973 4.84243e-11 -5.8865e-11)
(0.00175971 -5.39576e-11 8.79876e-11)
(0.00175973 5.80995e-11 -1.03995e-10)
(0.0017597 -3.75252e-11 1.07177e-10)
(0.00175975 1.12097e-10 -1.63301e-10)
(0.00175969 -7.18398e-11 1.54873e-10)
(0.00175976 1.48226e-10 -1.84586e-10)
(0.00175968 -8.54013e-11 1.99641e-10)
(0.00175977 1.30987e-10 -1.7387e-10)
(0.00175969 -1.63877e-10 2.40427e-10)
(0.00175976 5.40947e-11 -1.86085e-10)
(0.0017597 -1.00621e-10 2.40712e-10)
(0.00175974 1.46225e-11 -8.07683e-11)
(0.00175972 -2.03933e-10 2.02434e-10)
(0.00122904 -2.46807e-05 2.79015e-05)
(0.00170093 -1.31754e-06 1.41035e-06)
(0.00141022 7.8888e-07 -8.4713e-07)
(0.00158858 -4.85559e-07 5.21063e-07)
(0.00147898 2.97746e-07 -3.19508e-07)
(0.00154638 -1.82896e-07 1.9666e-07)
(0.001505 1.13488e-07 -1.21974e-07)
(0.00153025 -6.99722e-08 7.48278e-08)
(0.001515 4.22184e-08 -4.46783e-08)
(0.00152408 -2.50852e-08 2.60261e-08)
(0.00151878 1.42653e-08 -1.45674e-08)
(0.00152179 -8.00312e-09 7.88952e-09)
(0.00152013 4.22125e-09 -4.09684e-09)
(0.001521 -2.11639e-09 1.8927e-09)
(0.00152055 1.04919e-09 -9.47352e-10)
(0.00152078 -5.12271e-10 4.80952e-10)
(0.00152067 2.45651e-10 -2.55674e-10)
(0.00152072 -1.45928e-10 1.59958e-10)
(0.0015207 1.043e-10 -1.28626e-10)
(0.00152071 -8.68433e-11 1.11886e-10)
(0.0015207 6.73245e-11 -8.22486e-11)
(0.00152071 4.49761e-13 1.81871e-11)
(0.0015207 -2.04063e-11 2.49482e-11)
(0.00152071 5.19411e-11 -5.19192e-11)
(0.0015207 -6.558e-11 8.1133e-11)
(0.00152072 7.50336e-11 -9.81099e-11)
(0.00152069 -5.95507e-11 1.08355e-10)
(0.00152073 1.48523e-10 -1.50566e-10)
(0.00152069 -1.09953e-10 1.54966e-10)
(0.00152074 1.96771e-10 -1.74798e-10)
(0.00152068 -1.42263e-10 2.05791e-10)
(0.00152076 2.02939e-10 -1.86843e-10)
(0.00152069 -2.59285e-10 2.42298e-10)
(0.00152074 1.38719e-10 -2.16766e-10)
(0.00152069 -1.97696e-10 2.55927e-10)
(0.00152073 1.08881e-10 -1.32709e-10)
(0.00152071 -2.91105e-10 2.23527e-10)
(0.000906065 -2.49969e-05 2.4997e-05)
(0.00125324 -1.21446e-06 1.2145e-06)
(0.00103872 7.29899e-07 -7.29922e-07)
(0.00117017 -4.48988e-07 4.49007e-07)
(0.00108942 2.75378e-07 -2.75367e-07)
(0.00113904 -1.69138e-07 1.69464e-07)
(0.0011086 1.04379e-07 -1.04941e-07)
(0.00112721 -6.38438e-08 6.4344e-08)
(0.00111592 3.823e-08 -3.85152e-08)
(0.00112268 -2.23646e-08 2.24966e-08)
(0.0011187 1.25282e-08 -1.26521e-08)
(0.00112098 -6.81888e-09 6.87219e-09)
(0.00111971 3.48616e-09 -3.58467e-09)
(0.00112038 -1.74259e-09 1.68747e-09)
(0.00112003 8.44994e-10 -8.40388e-10)
(0.00112021 -3.87404e-10 4.27615e-10)
(0.00112013 2.16621e-10 -2.25292e-10)
(0.00112017 -1.41694e-10 1.39503e-10)
(0.00112015 1.19511e-10 -1.10162e-10)
(0.00112016 -9.30042e-11 9.24643e-11)
(0.00112015 7.26138e-11 -6.54949e-11)
(0.00112016 -1.59816e-11 1.59683e-11)
(0.00112015 -1.50974e-11 2.26353e-11)
(0.00112016 4.51264e-11 -4.54075e-11)
(0.00112015 -6.76801e-11 7.02424e-11)
(0.00112016 8.27067e-11 -8.47577e-11)
(0.00112015 -8.46832e-11 9.75864e-11)
(0.00112017 1.43358e-10 -1.23583e-10)
(0.00112014 -1.28533e-10 1.35632e-10)
(0.00112018 1.8219e-10 -1.4469e-10)
(0.00112014 -1.78113e-10 1.79219e-10)
(0.00112019 2.43813e-10 -1.65038e-10)
(0.00112015 -2.92458e-10 2.01439e-10)
(0.00112018 2.3558e-10 -1.95665e-10)
(0.00112015 -2.73546e-10 2.15478e-10)
(0.00112017 2.3272e-10 -1.34338e-10)
(0.00112016 -3.169e-10 1.95131e-10)
(0.000397739 -1.17207e-05 1.44309e-05)
(0.00054972 -6.30137e-07 6.58691e-07)
(0.000455361 3.82407e-07 -3.96227e-07)
(0.000513046 -2.34049e-07 2.43623e-07)
(0.000477626 1.42973e-07 -1.49284e-07)
(0.000499384 -8.68618e-08 9.16827e-08)
(0.000486033 5.24017e-08 -5.67167e-08)
(0.000494216 -3.15028e-08 3.47556e-08)
(0.000489226 1.86949e-08 -2.07563e-08)
(0.000492231 -1.08785e-08 1.21503e-08)
(0.00049045 6.14135e-09 -6.82822e-09)
(0.000491474 -3.36184e-09 3.73281e-09)
(0.000490903 1.76115e-09 -1.96431e-09)
(0.000491204 -9.69349e-10 9.33484e-10)
(0.000491049 5.03903e-10 -4.75778e-10)
(0.000491127 -2.39269e-10 2.44726e-10)
(0.000491092 1.36897e-10 -1.27001e-10)
(0.000491108 -9.92561e-11 7.94806e-11)
(0.000491101 7.20122e-11 -6.07989e-11)
(0.000491105 -6.20569e-11 5.29999e-11)
(0.000491102 5.22082e-11 -4.03455e-11)
(0.000491106 -3.44013e-11 1.27501e-11)
(0.000491103 3.56858e-11 2.904e-12)
(0.000491107 -1.31296e-11 -1.68831e-11)
(0.000491102 5.64421e-12 2.84753e-11)
(0.000491108 4.6344e-12 -3.61408e-11)
(0.0004911 -3.38526e-12 3.84075e-11)
(0.000491112 6.73268e-11 -6.72573e-11)
(0.000491101 -4.94983e-11 6.47353e-11)
(0.000491117 1.31001e-10 -8.76822e-11)
(0.000491102 -1.01803e-10 8.99458e-11)
(0.000491123 2.10091e-10 -9.86101e-11)
(0.000491104 -2.82914e-10 1.29739e-10)
(0.000491115 2.14216e-10 -1.04791e-10)
(0.000491102 -2.65584e-10 1.2945e-10)
(0.000491111 3.01178e-10 -8.39994e-11)
(0.000491104 -3.5171e-10 1.42987e-10)
(0.000516596 1.1704e-05 1.30426e-05)
(0.000714435 6.89085e-07 6.76834e-07)
(0.000592057 -4.18282e-07 -4.06055e-07)
(0.000667011 2.5609e-07 2.50029e-07)
(0.000620972 -1.56396e-07 -1.53333e-07)
(0.000649269 9.51455e-08 9.45385e-08)
(0.000631896 -5.77582e-08 -5.89964e-08)
(0.000642528 3.48283e-08 3.6476e-08)
(0.000636072 -2.0527e-08 -2.1866e-08)
(0.000639938 1.19016e-08 1.28385e-08)
(0.000637664 -6.67043e-09 -7.27096e-09)
(0.000638962 3.62431e-09 4.01274e-09)
(0.000638246 -1.93983e-09 -2.13581e-09)
(0.000638619 9.82985e-10 9.67013e-10)
(0.000638427 -5.29944e-10 -4.98425e-10)
(0.000638524 2.79242e-10 2.52583e-10)
(0.000638481 -1.53029e-10 -1.27049e-10)
(0.000638501 1.06654e-10 7.16573e-11)
(0.000638492 -7.68883e-11 -5.23735e-11)
(0.000638497 7.12519e-11 4.94656e-11)
(0.000638493 -5.90413e-11 -3.61268e-11)
(0.000638497 4.17296e-11 1.23391e-12)
(0.000638494 -3.81118e-11 1.60638e-11)
(0.000638499 1.70121e-11 -2.66764e-11)
(0.000638492 -6.17229e-12 3.82589e-11)
(0.000638501 -5.5013e-12 -4.3642e-11)