/*--------------------------------*- C++ -*----------------------------------*\
  =========                 |
  \\      /  F ield         | OpenFOAM: The Open Source CFD Toolbox
   \\    /   O peration     | Website:  https://openfoam.org
    \\  /    A nd           | Version:  13
     \\/     M anipulation  |
\*---------------------------------------------------------------------------*/
FoamFile
{
    format      ascii;
    class       surfaceScalarField;
    location    "27";
    object      phi;
}
// * * * * * * * * * * * * * * * * * * * * * * * * * * * * * * * * * * * * * //

dimensions      [0 3 -1 0 0 0 0];

internalField   nonuniform List<scalar> 
124891
(
1.24329e-14
4.31031e-14
4.31031e-14
8.43519e-15
1.99887e-15
1.99886e-15
9.85044e-15
-7.07632e-16
-7.07633e-16
8.79986e-15
5.25251e-16
5.25295e-16
9.47077e-15
-3.35456e-16
-3.35474e-16
9.0357e-15
2.17525e-16
2.17508e-16
9.31961e-15
-1.41979e-16
-1.41981e-16
9.13584e-15
9.18933e-17
9.18596e-17
9.25113e-15
-5.76449e-17
-5.76972e-17
9.18235e-15
3.4401e-17
3.43945e-17
9.21974e-15
-1.8737e-17
-1.86862e-17
9.20089e-15
9.40614e-18
9.44924e-18
9.20916e-15
-4.14729e-18
-4.14442e-18
9.20575e-15
1.69289e-18
1.69413e-18
9.20679e-15
-5.37012e-19
-5.40603e-19
9.20642e-15
1.70939e-19
1.68909e-19
9.20639e-15
3.42381e-21
1.75758e-21
9.20636e-15
3.59225e-21
-7.18576e-22
9.2063e-15
2.26159e-20
2.76914e-20
9.20633e-15
-2.56162e-20
-2.22271e-20
9.20625e-15
3.97232e-20
3.43359e-20
9.20631e-15
-3.27572e-20
-3.74136e-20
9.2062e-15
6.06749e-20
4.67859e-20
9.20624e-15
-3.4875e-20
-3.24913e-20
9.20614e-15
3.91578e-20
4.37051e-20
9.20618e-15
-2.72783e-20
-3.34006e-20
9.20613e-15
2.12907e-20
3.08001e-20
9.2062e-15
-4.0968e-20
-4.1223e-20
9.20609e-15
6.32105e-20
4.75656e-20
9.20624e-15
-8.20305e-20
-6.38625e-20
9.20612e-15
6.90236e-20
5.0297e-20
9.20623e-15
-6.75566e-20
-6.1875e-20
9.20612e-15
5.31826e-20
5.70156e-20
9.20624e-15
-5.87463e-20
-6.53917e-20
9.20616e-15
4.45862e-20
4.27107e-20
9.20623e-15
-4.52018e-20
-4.58642e-20
9.20615e-15
3.10445e-20
3.70204e-20
9.20623e-15
-4.1879e-20
-4.91049e-20
9.20618e-15
2.23754e-20
2.72433e-20
9.20624e-15
-4.1932e-20
-4.14067e-20
9.20617e-15
2.36606e-20
2.69729e-20
9.20621e-15
-3.27211e-20
-3.76719e-20
9.20617e-15
1.43289e-20
1.98185e-20
9.20622e-15
-3.55912e-20
-3.46938e-20
9.20616e-15
3.73695e-20
2.16333e-20
9.20624e-15
-4.94727e-20
-3.58922e-20
9.20618e-15
3.84794e-20
2.44783e-20
9.20626e-15
-4.47382e-20
-3.62516e-20
9.20621e-15
3.53022e-20
2.18057e-20
9.20627e-15
-4.14621e-20
-2.18409e-20
9.20624e-15
1.59633e-20
8.90593e-21
9.20622e-15
-1.15021e-20
-1.31086e-21
9.20627e-15
-5.40343e-21
-2.50779e-20
9.20623e-15
5.38708e-21
2.42779e-20
9.20631e-15
-1.41206e-20
-3.07419e-20
9.20631e-15
-5.08527e-21
1.63257e-20
9.20632e-15
2.50327e-21
-4.54759e-21
9.20633e-15
-1.38653e-20
-2.98861e-21
9.20635e-15
1.01737e-20
-4.30713e-21
9.2064e-15
-2.02897e-20
-9.13042e-21
9.20639e-15
1.28792e-20
6.76905e-21
9.2064e-15
-1.34344e-20
-2.65507e-21
9.20643e-15
2.37129e-21
-1.43754e-20
9.20646e-15
-1.7001e-20
-1.12595e-21
9.20647e-15
1.47837e-20
2.86657e-21
9.20658e-15
-5.49865e-20
-3.63377e-20
9.20642e-15
5.644e-20
4.59773e-20
9.20647e-15
-4.3483e-20
-4.50482e-20
9.20642e-15
2.08078e-20
1.55844e-20
9.20641e-15
-1.84634e-20
-1.5738e-20
9.20643e-15
-6.05209e-21
-7.35154e-21
9.20642e-15
-1.44582e-20
-7.05923e-21
9.20642e-15
3.3796e-21
-8.64262e-21
9.20642e-15
-2.44547e-20
-2.21089e-20
9.20634e-15
4.90186e-20
2.43127e-20
9.20646e-15
-8.36576e-20
-6.18513e-20
9.20633e-15
5.47804e-20
4.55203e-20
9.20643e-15
-8.16295e-20
-7.05568e-20
9.20634e-15
5.13843e-20
2.7116e-20
9.20644e-15
-7.08748e-20
-4.81491e-20
9.20638e-15
4.3518e-20
2.11714e-20
9.20647e-15
-6.85223e-20
-4.60867e-20
9.20637e-15
4.50366e-20
3.54337e-20
9.20646e-15
-7.41633e-20
-7.2933e-20
9.20638e-15
4.75404e-20
5.34489e-20
9.20648e-15
-5.64881e-20
-7.3744e-20
9.2064e-15
5.60135e-20
7.21971e-20
9.20652e-15
-6.03396e-20
-6.77722e-20
9.20643e-15
4.8333e-20
6.17215e-20
9.20653e-15
-6.73184e-20
-8.86725e-20
9.2064e-15
6.10851e-20
7.75202e-20
9.20655e-15
-7.92295e-20
-9.65181e-20
9.20641e-15
7.60735e-20
9.76712e-20
9.20657e-15
-8.52095e-20
-1.10289e-19
9.20642e-15
7.55798e-20
9.72588e-20
9.20656e-15
-7.29165e-20
-9.47832e-20
9.20646e-15
6.90427e-20
8.74319e-20
9.20657e-15
-6.10756e-20
-7.30639e-20
9.2065e-15
7.54041e-20
8.04225e-20
9.20659e-15
-6.58761e-20
-7.34382e-20
9.20651e-15
5.97226e-20
6.85341e-20
9.20663e-15
-8.48516e-20
-8.41553e-20
9.20649e-15
5.32083e-20
4.65836e-20
9.20664e-15
-5.51147e-20
-5.63802e-20
9.20651e-15
4.80511e-20
4.50493e-20
9.20664e-15
-4.59605e-20
-5.58083e-20
9.20652e-15
2.11764e-20
3.05401e-20
9.20663e-15
-2.02127e-20
-3.0978e-20
9.20656e-15
-9.72468e-22
7.16543e-21
9.20662e-15
-9.96536e-21
-2.09974e-20
9.20657e-15
-2.60074e-20
-1.37685e-20
9.20662e-15
1.35743e-21
-6.09451e-21
9.20658e-15
-2.93808e-20
-2.00879e-20
9.20663e-15
8.74822e-21
2.75238e-21
9.2066e-15
-1.52922e-20
-1.73696e-20
9.20664e-15
8.85983e-21
-1.3597e-21
9.20661e-15
-3.8533e-20
-2.68017e-20
9.20664e-15
1.35133e-20
8.12419e-21
9.20663e-15
-3.40792e-20
-2.5859e-20
9.20666e-15
1.99061e-20
1.56191e-20
9.20665e-15
-3.2769e-20
-2.68784e-20
9.20667e-15
1.46546e-20
6.92724e-21
9.20665e-15
-1.24538e-20
-1.57196e-20
9.20669e-15
2.7911e-20
2.44385e-20
9.20669e-15
-2.49626e-20
-2.21695e-20
9.20669e-15
2.10956e-20
5.0544e-21
9.2067e-15
-7.5971e-20
-6.20884e-20
9.20668e-15
2.96677e-20
2.34401e-20
9.20673e-15
-8.5796e-20
-7.95823e-20
9.20669e-15
4.07207e-20
3.6043e-20
9.20672e-15
-5.98764e-20
-6.41113e-20
9.20671e-15
4.15828e-20
4.37795e-20
9.20671e-15
-2.27565e-20
-3.96866e-20
9.20672e-15
4.28835e-20
5.06673e-20
9.20671e-15
-3.83528e-20
-4.47121e-20
9.20669e-15
3.45929e-20
5.29908e-20
9.20672e-15
-3.71738e-20
-5.37044e-20
9.20667e-15
7.42332e-20
8.28699e-20
9.20671e-15
-5.43223e-20
-6.17758e-20
9.20666e-15
6.93861e-20
8.57723e-20
9.20668e-15
-1.81189e-20
-3.11346e-20
9.20666e-15
6.85576e-20
7.97388e-20
9.20665e-15
-1.93382e-20
-2.39396e-20
9.20664e-15
6.11044e-20
4.90436e-20
9.20667e-15
-6.3313e-20
-4.60746e-20
9.20658e-15
6.79391e-20
6.14459e-20
9.20668e-15
-8.43273e-20
-7.87103e-20
9.20655e-15
1.03262e-19
1.02571e-19
9.20666e-15
-7.1306e-20
-7.32693e-20
9.20656e-15
9.79444e-20
9.63844e-20
9.2066e-15
-2.58148e-20
-3.72354e-20
9.20658e-15
6.12173e-20
7.01923e-20
9.20657e-15
-1.09121e-20
-1.30986e-20
9.20656e-15
6.18286e-20
5.16159e-20
9.20658e-15
-3.88442e-20
-2.2432e-20
9.2065e-15
7.57015e-20
7.11771e-20
9.2066e-15
-6.09253e-20
-4.70982e-20
9.20649e-15
1.00029e-19
9.13737e-20
9.20656e-15
-4.23519e-20
-5.09715e-20
9.20649e-15
7.74104e-20
8.24071e-20
9.20653e-15
-5.08625e-20
-5.12775e-20
9.20644e-15
6.08385e-20
6.90598e-20
9.2065e-15
-4.58474e-20
-5.07122e-20
9.20641e-15
7.22423e-20
7.70407e-20
9.20646e-15
-5.0775e-20
-5.61736e-20
9.20637e-15
7.12999e-20
7.75799e-20
9.20643e-15
-3.78168e-20
-4.33562e-20
9.2064e-15
5.21087e-20
5.92129e-20
9.2064e-15
-1.70381e-20
-2.14121e-20
9.20638e-15
4.52547e-20
3.56892e-20
9.2064e-15
-3.7204e-20
-2.28166e-20
9.20635e-15
5.22975e-20
4.51142e-20
9.2064e-15
-4.48019e-20
-3.57771e-20
9.20634e-15
6.53031e-20
5.89279e-20
9.2064e-15
-3.68338e-20
-3.66776e-20
9.20636e-15
5.45118e-20
4.91848e-20
9.20641e-15
-2.76826e-20
-2.51713e-20
9.20641e-15
4.03726e-20
3.44102e-20
9.20644e-15
-3.04735e-20
-2.48035e-20
9.2064e-15
4.15853e-20
3.2372e-20
9.20642e-15
-3.33554e-20
-2.13235e-20
9.20636e-15
5.18652e-20
4.137e-20
9.20641e-15
-4.24825e-20
-3.15675e-20
9.20638e-15
4.47291e-20
3.77844e-20
9.2064e-15
-1.6566e-20
-2.35394e-20
9.2064e-15
2.65532e-20
3.08779e-20
9.20642e-15
-3.29825e-20
-3.3587e-20
9.20636e-15
3.92483e-20
4.50409e-20
9.20643e-15
-4.87398e-20
-5.15935e-20
9.20634e-15
5.94034e-20
6.25269e-20
9.20641e-15
-5.58607e-20
-6.03159e-20
9.20632e-15
5.98958e-20
6.35546e-20
9.20639e-15
-4.648e-20
-5.03215e-20
9.20635e-15
4.06084e-20
4.52851e-20
9.20637e-15
-2.51793e-20
-2.86796e-20
9.20635e-15
3.46248e-20
2.7631e-20
9.20638e-15
-3.88578e-20
-2.90606e-20
9.20632e-15
4.18026e-20
3.64377e-20
9.20638e-15
-4.45181e-20
-3.8582e-20
9.20631e-15
5.29829e-20
4.82727e-20
9.20637e-15
-3.84219e-20
-3.87524e-20
9.20633e-15
4.44091e-20
4.03805e-20
9.20636e-15
-2.4358e-20
-2.30969e-20
9.20636e-15
2.57056e-20
2.16975e-20
9.20636e-15
-1.25932e-20
-1.00083e-20
9.20636e-15
1.38973e-20
7.8217e-21
9.20633e-15
-5.0552e-21
3.1731e-21
9.20634e-15
1.11403e-20
4.73525e-21
9.20633e-15
-3.4172e-21
4.27248e-21
9.20637e-15
4.34183e-21
-1.63403e-22
9.20635e-15
9.21029e-22
4.21791e-21
9.20635e-15
5.99104e-21
9.54857e-24
9.20631e-15
5.31292e-21
1.1785e-20
9.20633e-15
7.44116e-21
-2.52869e-21
9.20631e-15
-7.36336e-22
6.57853e-21
9.20633e-15
2.87613e-21
-2.70512e-21
9.20629e-15
4.20256e-21
1.30908e-20
9.2063e-15
6.46682e-21
-7.25251e-22
9.20628e-15
-7.81062e-22
8.04345e-21
9.20631e-15
8.08687e-21
5.36007e-22
9.20627e-15
1.26424e-20
9.01163e-21
9.20626e-15
1.47243e-20
7.73905e-21
9.20623e-15
-1.99138e-21
7.74104e-21
9.20623e-15
1.65672e-20
6.37699e-21
9.20621e-15
-1.49201e-21
7.3363e-21
9.20625e-15
3.57284e-21
-3.6352e-21
9.20624e-15
-5.34683e-21
5.93667e-21
9.20623e-15
2.64274e-20
1.01291e-20
9.20621e-15
-9.82914e-21
5.65245e-21
9.20619e-15
3.00169e-20
1.94087e-20
9.20618e-15
-3.48565e-21
-1.88094e-21
9.20615e-15
3.85604e-20
2.53521e-20
9.2062e-15
-4.28135e-20
-2.67238e-20
9.20614e-15
5.01453e-20
3.70876e-20
9.20619e-15
-3.76238e-20
-2.86833e-20
9.20611e-15
5.90326e-20
5.01011e-20
9.2062e-15
-4.89365e-20
-5.06238e-20
9.20617e-15
2.82905e-20
3.68002e-20
9.20624e-15
-4.06839e-20
-4.28632e-20
9.20624e-15
1.3733e-20
1.72575e-20
9.20627e-15
-1.57537e-20
-2.28351e-20
9.20624e-15
2.55702e-20
2.49236e-20
9.20631e-15
-5.12191e-20
-3.18944e-20
9.20626e-15
4.04944e-20
3.15137e-20
9.20636e-15
-6.18181e-20
-4.64402e-20
9.20634e-15
2.70278e-20
1.6183e-20
9.20641e-15
-3.9973e-20
-3.46872e-20
9.20638e-15
2.87751e-20
1.61922e-20
9.20646e-15
-5.21881e-20
-3.26692e-20
9.20626e-15
1.0979e-19
9.78677e-20
9.20678e-15
-2.72841e-19
-2.49189e-19
9.20598e-15
4.14937e-19
3.952e-19
9.20725e-15
-6.3319e-19
-6.27647e-19
9.20578e-15
7.37713e-19
7.22019e-19
9.20734e-15
-7.68075e-19
-7.68389e-19
9.20624e-15
5.16912e-19
5.144e-19
9.20695e-15
-3.51757e-19
-3.66032e-19
9.20684e-15
-1.12306e-20
-2.67395e-20
9.20696e-15
-1.47277e-19
-1.19078e-19
4.68822e-19
4.842e-19
2.33624e-14
4.96669e-14
6.87128e-14
1.88268e-14
3.00969e-15
3.52472e-15
2.01786e-14
-8.67182e-16
-1.19233e-15
1.9075e-14
7.23117e-16
9.05689e-16
1.97774e-14
-4.59846e-16
-5.78111e-16
1.93207e-14
2.9937e-16
3.74796e-16
1.962e-14
-1.97483e-16
-2.43982e-16
1.94256e-14
1.29692e-16
1.56565e-16
1.95474e-14
-8.30977e-17
-9.65675e-17
1.94751e-14
5.09592e-17
5.58215e-17
1.95135e-14
-2.83096e-17
-2.89505e-17
1.94946e-14
1.46653e-17
1.36712e-17
1.95024e-14
-6.56951e-18
-5.43358e-18
1.94993e-14
2.76573e-18
1.93766e-18
1.95001e-14
-9.4345e-19
-4.37895e-19
1.94998e-14
2.97173e-19
7.11699e-20
1.94996e-14
-4.40336e-20
9.29926e-20
1.94996e-14
3.33496e-20
-5.48276e-20
1.94995e-14
-1.56805e-20
8.55453e-20
1.94995e-14
-1.00137e-20
-7.59435e-20
1.94994e-14
2.26632e-20
1.01787e-19
1.94995e-14
-2.37648e-21
-1.10691e-19
1.94994e-14
6.71357e-20
1.19706e-19
1.94994e-14
-3.10959e-20
-1.10969e-19
1.94992e-14
5.16882e-21
1.06095e-19
1.94993e-14
-4.86197e-21
-1.06607e-19
1.94992e-14
-1.87874e-20
9.16712e-20
1.94993e-14
-3.19227e-20
-1.07635e-19
1.94992e-14
7.71421e-20
1.04394e-19
1.94993e-14
-1.17381e-19
-1.22037e-19
1.94992e-14
9.82945e-20
1.00117e-19
1.94993e-14
-1.03779e-19
-1.37237e-19
1.94992e-14
5.06677e-20
1.18574e-19
1.94993e-14
-6.50948e-20
-1.39493e-19
1.94993e-14
3.99327e-20
1.07366e-19
1.94993e-14
-5.03167e-20
-1.25362e-19
1.94992e-14
-1.16073e-20
9.5746e-20
1.94993e-14
-2.28723e-20
-1.31546e-19
1.94993e-14
-2.67415e-20
9.61549e-20
1.94993e-14
-4.90583e-20
-1.31747e-19
1.94992e-14
-2.9238e-20
7.58496e-20
1.94993e-14
-2.4044e-20
-1.21956e-19
1.94992e-14
-4.14314e-20
6.95969e-20
1.94993e-14
-3.65074e-20
-9.961e-20
1.94992e-14
2.994e-20
5.81664e-20
1.94993e-14
-7.64644e-20
-7.2731e-20
1.94992e-14
4.11445e-20
5.31308e-20
1.94993e-14
-6.76153e-20
-7.02107e-20
1.94993e-14
4.86332e-20
5.5185e-20
1.94994e-14
-8.42114e-20
-2.74689e-20
1.94993e-14
2.60252e-20
7.11241e-21
1.94993e-14
-6.09985e-20
-1.10775e-20
1.94994e-14
4.40853e-21
-4.5681e-20
1.94993e-14
-8.87145e-21
4.95929e-20
1.94994e-14
3.17447e-21
-3.62368e-20
1.94995e-14
-2.57956e-20
5.5643e-20
1.94995e-14
2.7266e-20
-1.53749e-20
1.94995e-14
-5.71267e-20
6.03938e-22
1.94995e-14
4.65951e-20
-6.64359e-21
1.94996e-14
-4.26866e-20
1.31534e-20
1.94996e-14
4.56718e-20
3.41072e-21
1.94996e-14
-5.77465e-20
4.98093e-21
1.94997e-14
2.78216e-20
-2.44931e-20
1.94997e-14
-2.98109e-20
1.58604e-20
1.94998e-14
3.00314e-20
3.88673e-20
1.94999e-14
-9.67961e-20
-3.13018e-20
1.94997e-14
3.97212e-20
4.30431e-20
1.94997e-14
-7.36917e-20
-1.27606e-19
1.94996e-14
-2.39331e-20
5.55525e-20
1.94996e-14
-2.15001e-20
-8.0423e-20
1.94996e-14
-7.51288e-20
4.0837e-20
1.94996e-14
-1.94675e-20
-5.91038e-20
1.94996e-14
-4.20062e-20
3.77836e-20
1.94996e-14
-4.32503e-20
-1.06955e-19
1.94995e-14
3.70182e-20
7.07876e-20
1.94996e-14
-1.51947e-19
-1.25875e-19
1.94995e-14
3.98929e-20
8.38096e-20
1.94996e-14
-1.89828e-19
-1.49944e-19
1.94995e-14
5.60171e-20
4.75994e-20
1.94996e-14
-1.42784e-19
-9.24744e-20
1.94995e-14
5.3406e-20
5.58335e-20
1.94996e-14
-1.43428e-19
-8.21745e-20
1.94995e-14
4.06671e-20
5.54641e-20
1.94996e-14
-1.8271e-19
-1.68043e-19
1.94995e-14
8.11649e-20
1.2699e-19
1.94996e-14
-1.03413e-19
-1.79354e-19
1.94996e-14
9.8409e-20
2.01415e-19
1.94997e-14
-6.67926e-20
-1.57603e-19
1.94996e-14
2.00969e-20
1.68855e-19
1.94997e-14
-8.95774e-20
-2.51358e-19
1.94996e-14
4.12919e-20
2.04421e-19
1.94997e-14
-7.93679e-20
-2.55979e-19
1.94996e-14
6.17364e-20
2.73514e-19
1.94998e-14
-8.10388e-20
-2.98468e-19
1.94996e-14
5.13075e-20
2.70163e-19
1.94997e-14
-4.15675e-20
-2.81503e-19
1.94997e-14
5.90781e-20
2.74705e-19
1.94998e-14
-3.11124e-20
-2.21894e-19
1.94997e-14
1.20733e-19
2.70031e-19
1.94998e-14
-7.60528e-20
-2.35505e-19
1.94998e-14
5.59109e-20
2.24486e-19
1.94999e-14
-1.21922e-19
-2.20825e-19
1.94997e-14
-2.64328e-20
9.91095e-20
1.94999e-14
1.09097e-20
-1.10284e-19
1.94997e-14
-1.90866e-20
9.70654e-20
1.94999e-14
8.28298e-22
-1.14906e-19
1.94997e-14
-8.85963e-20
3.35374e-20
1.94999e-14
7.22353e-20
-3.95925e-20
1.94998e-14
-1.17112e-19
1.16184e-20
1.94999e-14
3.82244e-20
-3.45767e-20
1.94998e-14
-1.77562e-19
-5.51452e-20
1.94998e-14
7.84198e-20
-2.40296e-21
1.94998e-14
-1.8305e-19
-5.14437e-20
1.94999e-14
9.4484e-20
2.73888e-20
1.94998e-14
-1.18275e-19
-4.04656e-20
1.94999e-14
8.38722e-20
1.99167e-21
1.94998e-14
-2.039e-19
-7.29701e-20
1.94999e-14
1.1301e-19
2.32056e-20
1.94999e-14
-1.85862e-19
-5.11577e-20
1.94999e-14
1.20027e-19
5.4928e-20
1.94999e-14
-1.71698e-19
-5.60421e-20
1.94999e-14
1.08789e-19
1.45101e-20
1.94999e-14
-1.08426e-19
-4.93458e-20
1.95e-14
1.73124e-19
9.13675e-20
1.95e-14
-1.40317e-19
-1.74309e-20
1.95e-14
8.84139e-20
-1.3658e-20
1.95e-14
-3.01554e-19
-1.48041e-19
1.94999e-14
1.04735e-19
3.62933e-20
1.95e-14
-3.16935e-19
-1.66578e-19
1.94999e-14
1.23884e-19
7.21758e-20
1.95e-14
-2.12252e-19
-1.60314e-19
1.95e-14
1.72424e-19
1.07325e-19
1.94999e-14
-1.124e-19
-1.20044e-19
1.95e-14
1.87038e-19
1.6045e-19
1.94999e-14
-1.67206e-19
-1.37564e-19
1.94999e-14
1.27075e-19
1.52077e-19
1.95e-14
-1.09198e-19
-1.5674e-19
1.94999e-14
2.17068e-19
2.29603e-19
1.94999e-14
-1.16418e-19
-1.98389e-19
1.94999e-14
2.06002e-19
2.29392e-19
1.94999e-14
-1.69507e-20
-1.09848e-19
1.94999e-14
2.31588e-19
2.40933e-19
1.94999e-14
-3.7967e-20
-1.14481e-19
1.94999e-14
2.05065e-19
1.43667e-19
1.94999e-14
-1.79974e-19
-1.34e-19
1.94998e-14
1.60461e-19
1.34021e-19
1.94999e-14
-1.8707e-19
-2.02255e-19
1.94998e-14
2.45827e-19
2.35766e-19
1.94999e-14
-1.24888e-19
-1.8122e-19
1.94998e-14
2.7269e-19
2.22521e-19
1.94998e-14
-3.7561e-20
-1.1587e-19
1.94998e-14
2.19011e-19
1.98971e-19
1.94998e-14
-1.8048e-20
-7.10603e-20
1.94998e-14
2.23013e-19
1.41895e-19
1.94998e-14
-9.03136e-20
-7.83997e-20
1.94997e-14
2.04906e-19
1.6705e-19
1.94998e-14
-9.98196e-20
-1.08187e-19
1.94997e-14
2.53701e-19
2.08271e-19
1.94998e-14
-4.41434e-20
-1.41594e-19
1.94997e-14
1.985e-19
2.08912e-19
1.94998e-14
-1.01588e-19
-1.54771e-19
1.94997e-14
1.34431e-19
1.61513e-19
1.94997e-14
-7.75232e-20
-1.53052e-19
1.94996e-14
1.57014e-19
1.99019e-19
1.94997e-14
-7.32597e-20
-1.81476e-19
1.94996e-14
1.54028e-19
1.97173e-19
1.94996e-14
-3.91537e-20
-1.34955e-19
1.94996e-14
1.30394e-19
1.84263e-19
1.94996e-14
-4.65919e-21
-1.07291e-19
1.94996e-14
1.181e-19
1.23854e-19
1.94996e-14
-7.28281e-20
-9.45238e-20
1.94995e-14
1.21682e-19
1.18909e-19
1.94996e-14
-7.80407e-20
-1.02334e-19
1.94995e-14
1.66123e-19
1.46513e-19
1.94996e-14
-6.20012e-20
-9.50182e-20
1.94996e-14
1.63787e-19
1.25444e-19
1.94996e-14
-5.44833e-20
-5.50863e-20
1.94996e-14
1.44941e-19
9.47801e-20
1.94997e-14
-7.0295e-20
-4.17407e-20
1.94996e-14
1.16479e-19
5.16259e-20
1.94996e-14
-8.7538e-20
-6.84781e-20
1.94996e-14
1.39615e-19
8.40006e-20
1.94996e-14
-9.17613e-20
-7.66896e-20
1.94996e-14
1.25081e-19
9.71068e-20
1.94996e-14
-2.31524e-20
-7.39941e-20
1.94996e-14
7.42301e-20
1.02076e-19
1.94997e-14
-6.16152e-20
-1.12123e-19
1.94996e-14
6.87944e-20
1.13619e-19
1.94997e-14
-7.3825e-20
-1.47183e-19
1.94996e-14
9.61618e-20
1.61744e-19
1.94996e-14
-7.30253e-20
-1.78509e-19
1.94995e-14
9.50445e-20
1.60037e-19
1.94996e-14
-5.35581e-20
-1.4373e-19
1.94996e-14
6.70863e-20
1.40898e-19
1.94996e-14
-1.70375e-20
-1.12071e-19
1.94996e-14
5.88042e-20
9.83449e-20
1.94996e-14
-6.23575e-20
-1.03883e-19
1.94995e-14
7.07445e-20
9.65766e-20
1.94996e-14
-7.07199e-20
-1.06701e-19
1.94995e-14
1.06439e-19
1.19453e-19
1.94996e-14
-6.35089e-20
-9.71366e-20
1.94995e-14
1.07034e-19
1.01299e-19
1.94996e-14
-5.00801e-20
-5.44802e-20
1.94996e-14
8.44904e-20
6.45366e-20
1.94996e-14
-4.06276e-20
-2.49093e-20
1.94996e-14
5.44553e-20
1.57544e-20
1.94995e-14
-3.54021e-20
-1.97954e-20
1.94995e-14
6.0731e-20
2.06842e-20
1.94995e-14
-2.97188e-20
2.67435e-21
1.94996e-14
5.23597e-20
2.7241e-20
1.94996e-14
-2.12054e-20
2.8826e-21
1.94996e-14
3.98528e-20
-5.49269e-21
1.94995e-14
-1.5779e-20
-2.6661e-21
1.94995e-14
5.82112e-20
1.13626e-20
1.94995e-14
-2.86967e-20
2.41152e-21
1.94995e-14
3.7187e-20
5.03423e-21
1.94995e-14
-1.8009e-20
1.65097e-21
1.94995e-14
5.03561e-20
1.02521e-20
1.94995e-14
-2.46869e-20
7.1016e-21
1.94995e-14
5.50728e-20
1.92818e-20
1.94994e-14
8.22183e-21
-5.51642e-22
1.94994e-14
5.67975e-20
2.32788e-20
1.94994e-14
-2.3877e-20
-1.21063e-20
1.94994e-14
6.49566e-20
2.6743e-20
1.94994e-14
-2.11513e-20
2.42949e-21
1.94994e-14
3.69511e-20
2.66213e-20
1.94994e-14
-2.39349e-20
1.73596e-21
1.94994e-14
8.42929e-20
4.10385e-20
1.94994e-14
-3.53046e-20
-7.52427e-21
1.94993e-14
8.28944e-20
5.48433e-20
1.94993e-14
-1.04837e-20
-2.27062e-20
1.94993e-14
9.12583e-20
7.88898e-20
1.94993e-14
-8.52109e-20
-7.01285e-20
1.94993e-14
1.02073e-19
9.2879e-20
1.94993e-14
-5.89206e-20
-7.68858e-20
1.94992e-14
1.09168e-19
1.27711e-19
1.94993e-14
-6.87973e-20
-1.23413e-19
1.94993e-14
3.53508e-20
1.15013e-19
1.94994e-14
-4.26432e-20
-1.24052e-19
1.94995e-14
4.37293e-21
8.18666e-20
1.94995e-14
8.23653e-21
-8.70947e-20
1.94995e-14
2.31829e-20
8.61636e-20
1.94995e-14
-8.00543e-20
-9.67124e-20
1.94995e-14
6.62035e-20
7.89287e-20
1.94996e-14
-1.08361e-19
-1.05658e-19
1.94996e-14
7.16569e-20
2.65622e-20
1.94997e-14
-8.50457e-20
-6.72726e-20
1.94997e-14
8.60909e-20
5.75398e-21
1.94998e-14
-1.17362e-19
-2.8707e-20
1.94996e-14
2.21432e-19
1.03481e-19
1.95002e-14
-4.6231e-19
-4.063e-19
1.94993e-14
6.79518e-19
6.33855e-19
1.95008e-14
-9.00297e-19
-1.17446e-18
1.94991e-14
1.0131e-18
1.35717e-18
1.95009e-14
-8.532e-19
-1.65875e-18
1.94998e-14
4.15015e-19
1.08855e-18
1.95005e-14
2.15568e-20
-1.15173e-18
1.95006e-14
-4.84926e-19
4.0644e-21
1.95008e-14
-7.08743e-20
-1.22921e-18
5.74665e-19
2.06749e-18
2.96354e-14
4.43342e-14
7.43364e-14
2.55268e-14
3.09288e-15
4.02536e-15
2.6718e-14
-7.25106e-16
-1.33325e-15
2.57272e-14
6.86555e-16
1.02719e-15
2.63576e-14
-4.34466e-16
-6.55795e-16
2.59472e-14
2.8409e-16
4.25514e-16
2.62163e-14
-1.89146e-16
-2.77584e-16
2.60419e-14
1.25673e-16
1.78378e-16
2.61503e-14
-8.16227e-17
-1.09983e-16
2.60869e-14
5.07242e-17
6.36195e-17
2.61195e-14
-2.82709e-17
-3.27636e-17
2.61041e-14
1.47628e-17
1.53781e-17
2.611e-14
-6.54951e-18
-5.98558e-18
2.61078e-14
2.77207e-18
2.11166e-18
2.61081e-14
-9.29446e-19
-4.44748e-19
2.6108e-14
3.01302e-19
6.83281e-20
2.61078e-14
-5.98481e-20
1.2042e-19
2.61077e-14
7.22622e-20
-5.75203e-20
2.61076e-14
-6.29922e-20
9.99745e-20
2.61076e-14
1.91339e-20
-8.25393e-20
2.61075e-14
-6.04892e-21
1.13688e-19
2.61076e-14
4.23609e-20
-1.2459e-19
2.61074e-14
5.88483e-20
1.36077e-19
2.61074e-14
-1.3816e-20
-1.13326e-19
2.61073e-14
-3.6101e-20
1.21104e-19
2.61073e-14
3.15173e-20
-1.12874e-19
2.61073e-14
-6.73227e-20
9.67948e-20
2.61073e-14
-2.10723e-21
-1.19535e-19
2.61072e-14
6.91235e-20
1.1368e-19
2.61074e-14
-1.21123e-19
-1.40757e-19
2.61073e-14
1.0188e-19
1.06838e-19
2.61074e-14
-1.13074e-19
-1.49154e-19
2.61073e-14
2.82157e-20
1.32499e-19
2.61074e-14
-4.45445e-20
-1.62598e-19
2.61073e-14
1.9995e-20
1.15034e-19
2.61074e-14
-3.66993e-20
-1.36571e-19
2.61073e-14
-5.75705e-20
1.03425e-19
2.61074e-14
1.33758e-20
-1.49519e-19
2.61073e-14
-7.85796e-20
1.00237e-19
2.61074e-14
-3.87615e-20
-1.45719e-19
2.61073e-14
-7.75808e-20
8.15465e-20
2.61073e-14
3.75241e-21
-1.34527e-19
2.61073e-14
-9.39719e-20
6.95686e-20
2.61073e-14
-1.45927e-20
-1.13883e-19
2.61072e-14
1.88462e-20
5.47364e-20
2.61073e-14
-8.18874e-20
-8.14844e-20
2.61073e-14
3.42635e-20
5.04555e-20
2.61074e-14
-6.10189e-20
-8.62405e-20
2.61073e-14
4.48823e-20
5.62517e-20
2.61074e-14
-1.04758e-19
-3.4787e-20
2.61073e-14
3.55291e-20
6.66067e-21
2.61073e-14
-9.87967e-20
-8.40608e-21
2.61074e-14
1.51791e-20
-6.32934e-20
2.61073e-14
-1.32678e-20
5.34829e-20
2.61075e-14
9.46945e-21
-4.98224e-20
2.61075e-14
-4.38588e-20
5.97306e-20
2.61075e-14
4.95517e-20
-1.90777e-20
2.61075e-14
-9.08439e-20
1.1364e-21
2.61076e-14
7.2461e-20
-1.86859e-20
2.61077e-14
-5.89147e-20
8.37671e-21
2.61076e-14
7.02195e-20
3.00522e-21
2.61077e-14
-9.12662e-20
7.21001e-21
2.61077e-14
4.14519e-20
-3.8605e-20
2.61078e-14
-2.60603e-20
7.93376e-21
2.61078e-14
2.05993e-20
3.35929e-20
2.6108e-14
-1.06995e-19
-6.13844e-20
2.61077e-14
2.17442e-20
6.90313e-20
2.61077e-14
-6.80262e-20
-1.43109e-19
2.61077e-14
-6.23611e-20
5.57975e-20
2.61076e-14
4.9172e-21
-9.6637e-20
2.61077e-14
-1.32723e-19
3.50536e-20
2.61076e-14
-5.2144e-21
-7.1869e-20
2.61076e-14
-7.75579e-20
2.96773e-20
2.61076e-14
-2.59912e-20
-1.26663e-19
2.61075e-14
3.05497e-20
6.46432e-20
2.61076e-14
-1.71652e-19
-1.52449e-19
2.61074e-14
2.50552e-20
8.58777e-20
2.61075e-14
-2.45014e-19
-1.7518e-19
2.61074e-14
4.80447e-20
3.93627e-20
2.61075e-14
-1.57887e-19
-1.18781e-19
2.61075e-14
3.51805e-20
5.78298e-20
2.61076e-14
-1.7061e-19
-1.01256e-19
2.61074e-14
3.66937e-20
5.60733e-20
2.61075e-14
-2.47134e-19
-1.94462e-19
2.61074e-14
1.07352e-19
1.31761e-19
2.61075e-14
-1.2103e-19
-2.0892e-19
2.61075e-14
1.14523e-19
2.2807e-19
2.61076e-14
-4.53466e-20
-1.8971e-19
2.61075e-14
-3.44166e-20
1.90333e-19
2.61076e-14
-7.13554e-20
-2.91175e-19
2.61075e-14
1.12441e-20
2.28849e-19
2.61076e-14
-4.96388e-20
-2.96486e-19
2.61075e-14
2.18376e-20
3.08777e-19
2.61077e-14
-4.98489e-20
-3.40354e-19
2.61075e-14
8.1517e-21
3.05374e-19
2.61077e-14
1.85739e-20
-3.24496e-19
2.61076e-14
1.48955e-20
3.13934e-19
2.61077e-14
8.33039e-21
-2.51097e-19
2.61077e-14
1.31152e-19
2.96842e-19
2.61077e-14
-6.47339e-20
-2.59317e-19
2.61077e-14
3.61053e-20
2.42107e-19
2.61078e-14
-1.20463e-19
-2.55224e-19
2.61076e-14
-1.00973e-19
1.12043e-19
2.61078e-14
8.36976e-20
-1.35729e-19
2.61077e-14
-8.72541e-20
1.08802e-19
2.61078e-14
6.09606e-20
-1.39946e-19
2.61076e-14
-1.76274e-19
3.92608e-20
2.61078e-14
1.74428e-19
-6.62301e-20
2.61077e-14
-2.19237e-19
1.55414e-20
2.61077e-14
8.87362e-20
-5.01015e-20
2.61077e-14
-2.82238e-19
-6.73517e-20
2.61077e-14
1.67278e-19
-2.63685e-20
2.61077e-14
-3.04929e-19
-5.57172e-20
2.61077e-14
1.72365e-19
1.53346e-20
2.61077e-14
-1.94021e-19
-4.92657e-20
2.61077e-14
1.47741e-19
-7.91897e-21
2.61077e-14
-3.14731e-19
-8.84835e-20
2.61077e-14
2.1352e-19
4.6594e-21
2.61077e-14
-3.08465e-19
-5.4138e-20
2.61077e-14
1.99913e-19
5.23584e-20
2.61077e-14
-2.74523e-19
-6.67974e-20
2.61078e-14
1.94819e-19
3.82505e-22
2.61077e-14
-1.69721e-19
-5.85298e-20
2.61078e-14
2.82005e-19
9.69765e-20
2.61078e-14
-2.33658e-19
-2.54764e-20
2.61078e-14
1.44633e-19
-2.14588e-20
2.61078e-14
-4.37482e-19
-1.86086e-19
2.61077e-14
1.92204e-19
1.18011e-20
2.61078e-14
-4.77284e-19
-1.96509e-19
2.61077e-14
1.98595e-19
6.21331e-20
2.61077e-14
-2.97228e-19
-1.94685e-19
2.61077e-14
2.72666e-19
1.14187e-19
2.61077e-14
-1.65433e-19
-1.40234e-19
2.61077e-14
2.55917e-19
2.0516e-19
2.61077e-14
-2.44643e-19
-1.67348e-19
2.61077e-14
1.80523e-19
1.76452e-19
2.61077e-14
-1.63794e-19
-1.65968e-19
2.61077e-14
2.82278e-19
2.84126e-19
2.61077e-14
-1.4286e-19
-2.26172e-19
2.61077e-14
2.87142e-19
2.68164e-19
2.61077e-14
-3.55136e-20
-9.68529e-20
2.61077e-14
3.09101e-19
2.9955e-19
2.61077e-14
-3.70523e-20
-1.23233e-19
2.61077e-14
2.79357e-19
1.75045e-19
2.61077e-14
-2.55181e-19
-1.41536e-19
2.61076e-14
2.20793e-19
1.44794e-19
2.61077e-14
-2.54003e-19
-2.16995e-19
2.61076e-14
3.25601e-19
2.73206e-19
2.61077e-14
-1.61436e-19
-1.90805e-19
2.61076e-14
3.74974e-19
2.63465e-19
2.61077e-14
-4.78561e-20
-1.12418e-19
2.61077e-14
2.92239e-19
2.49632e-19
2.61077e-14
-2.42013e-20
-6.7136e-20
2.61077e-14
3.05141e-19
1.78783e-19
2.61077e-14
-1.3502e-19
-6.49646e-20
2.61077e-14
2.82564e-19
1.92846e-19
2.61078e-14
-1.47515e-19
-9.40136e-20
2.61077e-14
3.39657e-19
2.46435e-19
2.61078e-14
-4.66507e-20
-1.40508e-19
2.61077e-14
2.54271e-19
2.54476e-19
2.61077e-14
-1.36507e-19
-1.63634e-19
2.61076e-14
1.71277e-19
1.87597e-19
2.61077e-14
-1.0565e-19
-1.49687e-19
2.61076e-14
1.93475e-19
2.35174e-19
2.61076e-14
-8.15458e-20
-1.90284e-19
2.61075e-14
2.01266e-19
2.24389e-19
2.61076e-14
-5.02243e-20
-1.29521e-19
2.61076e-14
1.66189e-19
2.13247e-19
2.61076e-14
8.44546e-21
-1.0523e-19
2.61076e-14
1.55321e-19
1.39588e-19
2.61076e-14
-1.01936e-19
-8.6406e-20
2.61076e-14
1.63836e-19
1.31279e-19
2.61076e-14
-1.08161e-19
-9.78216e-20
2.61076e-14
2.27358e-19
1.64699e-19
2.61076e-14
-8.26943e-20
-9.38946e-20
2.61076e-14
2.31474e-19
1.39735e-19
2.61077e-14
-8.10804e-20
-4.98522e-20
2.61077e-14
2.11236e-19
1.03523e-19
2.61078e-14
-1.10236e-19
-3.73512e-20
2.61077e-14
1.5911e-19
6.40621e-20
2.61077e-14
-1.28251e-19
-6.0205e-20
2.61077e-14
2.0096e-19
9.33153e-20
2.61077e-14
-1.35897e-19
-7.13011e-20
2.61077e-14
1.77673e-19
1.05472e-19
2.61077e-14
-3.255e-20
-7.01086e-20
2.61077e-14
9.94634e-20
1.14118e-19
2.61078e-14
-8.61593e-20
-1.14418e-19
2.61077e-14
8.27636e-20
1.2615e-19
2.61078e-14
-9.41878e-20
-1.48941e-19
2.61077e-14
1.07513e-19
1.83369e-19
2.61077e-14
-7.77729e-20
-1.8812e-19
2.61076e-14
1.12561e-19
1.76188e-19
2.61077e-14
-6.08406e-20
-1.46193e-19
2.61077e-14
7.56792e-20
1.53566e-19
2.61077e-14
-6.80264e-21
-1.12172e-19
2.61077e-14
6.9238e-20
1.02661e-19
2.61077e-14
-8.01271e-20
-9.9597e-20
2.61076e-14
8.7205e-20
1.02351e-19
2.61077e-14
-9.01657e-20
-1.06935e-19
2.61076e-14
1.38612e-19
1.2884e-19
2.61077e-14
-7.92152e-20
-1.00133e-19
2.61077e-14
1.47454e-19
1.07513e-19
2.61077e-14
-7.08075e-20
-5.26233e-20
2.61077e-14
1.2674e-19
6.43154e-20
2.61077e-14
-7.03652e-20
-1.79848e-20
2.61077e-14
8.31443e-20
1.59758e-20
2.61077e-14
-6.6227e-20
-5.56929e-21
2.61077e-14
1.04331e-19
1.68711e-20
2.61077e-14
-6.14077e-20
1.27474e-20
2.61078e-14
9.46613e-20
1.82399e-20
2.61077e-14
-5.0232e-20
1.32247e-20
2.61077e-14
6.66355e-20
-5.6129e-21
2.61077e-14
-4.13023e-20
1.36857e-20
2.61077e-14
1.05965e-19
3.58299e-21
2.61077e-14
-6.27986e-20
1.46803e-20
2.61077e-14
6.5652e-20
1.15274e-21
2.61076e-14
-4.57696e-20
1.89117e-20
2.61076e-14
9.07285e-20
5.63703e-21
2.61076e-14
-5.45763e-20
1.90604e-20
2.61077e-14
9.75697e-20
1.21348e-20
2.61076e-14
-4.49058e-21
1.31225e-20
2.61076e-14
8.85107e-20
2.59058e-20
2.61075e-14
-5.08707e-20
4.47211e-21
2.61075e-14
1.07505e-19
2.48274e-20
2.61075e-14
-4.71754e-20
1.30485e-20
2.61076e-14
6.84401e-20
1.44348e-20
2.61076e-14
-4.35108e-20
1.06335e-20
2.61076e-14
1.34378e-19
3.73914e-20
2.61075e-14
-6.36798e-20
6.27763e-21
2.61075e-14
1.25102e-19
5.63196e-20
2.61075e-14
-1.96833e-20
-1.18472e-20
2.61074e-14
1.28892e-19
7.93273e-20
2.61075e-14
-1.14675e-19
-7.17255e-20
2.61074e-14
1.36034e-19
9.8146e-20
2.61075e-14
-6.9987e-20
-7.74254e-20
2.61074e-14
1.40672e-19
1.36588e-19
2.61075e-14
-7.96454e-20
-1.34026e-19
2.61075e-14
3.57608e-20
1.14894e-19
2.61076e-14
-3.92496e-20
-1.38151e-19
2.61076e-14
-3.90878e-21
7.76564e-20
2.61077e-14
2.75204e-20
-8.94666e-20
2.61077e-14
1.43548e-20
9.1348e-20
2.61077e-14
-9.7805e-20
-1.07088e-19
2.61077e-14
7.97076e-20
8.29991e-20
2.61078e-14
-1.37533e-19
-1.2536e-19
2.61079e-14
9.95247e-20
2.544e-20
2.6108e-14
-1.13479e-19
-8.12449e-20
2.6108e-14
1.13043e-19
1.21305e-20
2.6108e-14
-1.4752e-19
-3.46465e-20
2.61079e-14
2.5573e-19
1.21546e-19
2.61084e-14
-5.1881e-19
-4.80611e-19
2.61076e-14
7.30141e-19
7.49654e-19
2.6109e-14
-9.16019e-19
-1.3675e-18
2.61074e-14
9.91037e-19
1.6084e-18
2.61093e-14
-7.30186e-19
-1.91838e-18
2.61081e-14
1.81769e-19
1.27333e-18
2.61089e-14
3.44362e-19
-1.24233e-18
2.61091e-14
-8.91919e-19
-9.44105e-20
2.61092e-14
1.75813e-19
-1.09301e-18
3.82183e-19
2.40101e-18
3.36277e-14
3.38931e-14
7.54524e-14
2.99445e-14
2.58541e-15
4.19063e-15
3.10951e-14
-5.08742e-16
-1.36705e-15
3.0176e-14
5.40585e-16
1.065e-15
3.07623e-14
-3.404e-16
-6.80366e-16
3.03808e-14
2.23202e-16
4.4222e-16
3.06306e-14
-1.49427e-16
-2.89664e-16
3.04692e-14
9.99102e-17
1.87066e-16
3.05687e-14
-6.54052e-17
-1.15895e-16
3.05112e-14
4.08785e-17
6.74625e-17
3.05404e-14
-2.27945e-17
-3.47832e-17
3.05268e-14
1.19692e-17
1.63641e-17
3.05318e-14
-5.28858e-18
-6.32307e-18
3.053e-14
2.25076e-18
2.23982e-18
3.05302e-14
-7.58912e-19
-4.55463e-19
3.05301e-14
2.4848e-19
7.84529e-20
3.05299e-14
-7.79044e-20
1.32924e-19
3.05298e-14
9.35226e-20
-4.82791e-20
3.05297e-14
-1.03413e-19
1.01398e-19
3.05297e-14
3.93064e-20
-7.10314e-20
3.05296e-14
-3.28235e-20
1.06957e-19