/*--------------------------------*- C++ -*----------------------------------*\
  =========                 |
  \\      /  F ield         | OpenFOAM: The Open Source CFD Toolbox
   \\    /   O peration     | Website:  https://openfoam.org
    \\  /    A nd           | Version:  13
     \\/     M anipulation  |
\*---------------------------------------------------------------------------*/
FoamFile
{
    format      ascii;
    class       volVectorField;
    location    "27";
    object      U;
}
// * * * * * * * * * * * * * * * * * * * * * * * * * * * * * * * * * * * * * //

dimensions      [0 1 -1 0 0 0 0];

internalField   nonuniform List<vector> 
43940
(
(0.000161692 4.14773e-05 4.14772e-05)
(0.000186866 1.84533e-06 1.84532e-06)
(0.000144243 -8.49251e-07 -8.4926e-07)
(0.000163031 5.5813e-07 5.58178e-07)
(0.000150884 -3.57541e-07 -3.57556e-07)
(0.000158627 2.30946e-07 2.30934e-07)
(0.000153647 -1.49846e-07 -1.49832e-07)
(0.000156901 9.65303e-08 9.64772e-08)
(0.000154749 -6.0661e-08 -6.06848e-08)
(0.000156158 3.6454e-08 3.64099e-08)
(0.000155259 -2.04172e-08 -2.03414e-08)
(0.000155787 1.05287e-08 1.05521e-08)
(0.000155497 -4.93536e-09 -4.92725e-09)
(0.000155637 2.08011e-09 2.08234e-09)
(0.000155573 -7.76728e-10 -7.78411e-10)
(0.000155596 2.29013e-10 2.3063e-10)
(0.000155587 -4.9149e-11 -5.42272e-11)
(0.000155588 -1.52609e-11 -1.25902e-11)
(0.000155587 1.8877e-11 1.66193e-11)
(0.000155587 -4.15688e-11 -3.53213e-11)
(0.000155586 4.15835e-11 3.42237e-11)
(0.000155586 -4.69627e-11 -4.5848e-11)
(0.000155586 5.66021e-11 4.47459e-11)
(0.000155585 -5.5544e-11 -5.28211e-11)
(0.000155585 3.43731e-11 3.48056e-11)
(0.000155584 -4.41753e-11 -4.55152e-11)
(0.000155584 3.10235e-11 3.43655e-11)
(0.000155584 -5.11924e-11 -4.75787e-11)
(0.000155584 6.58961e-11 5.19504e-11)
(0.000155584 -7.81263e-11 -6.271e-11)
(0.000155585 7.24112e-11 5.77736e-11)
(0.000155584 -7.2472e-11 -6.82523e-11)
(0.000155584 5.60821e-11 5.68188e-11)
(0.000155584 -6.0585e-11 -6.24803e-11)
(0.000155585 5.29815e-11 4.97673e-11)
(0.000155585 -5.52758e-11 -5.46029e-11)
(0.000155584 3.60835e-11 3.8343e-11)
(0.000155585 -4.8717e-11 -5.10451e-11)
(0.000155585 3.41457e-11 3.47438e-11)
(0.000155585 -5.315e-11 -5.16392e-11)
(0.000155585 2.62738e-11 2.64006e-11)
(0.000155584 -4.56582e-11 -4.64052e-11)
(0.000155585 2.26824e-11 2.35208e-11)
(0.000155585 -4.39807e-11 -3.97143e-11)
(0.000155585 4.18675e-11 2.86929e-11)
(0.000155585 -4.92736e-11 -3.808e-11)
(0.000155585 4.23795e-11 3.04508e-11)
(0.000155585 -4.39754e-11 -3.39479e-11)
(0.000155586 4.13791e-11 2.84696e-11)
(0.000155585 -3.82807e-11 -2.26088e-11)
(0.000155586 1.45724e-11 9.38938e-12)
(0.000155585 -1.30917e-11 -7.63558e-12)
(0.000155586 5.34504e-14 -1.56065e-11)
(0.000155585 6.45521e-12 2.4156e-11)
(0.000155586 1.94644e-12 -1.39082e-11)
(0.000155587 2.35077e-12 1.91907e-11)
(0.000155587 5.32921e-12 3.94384e-13)
(0.000155587 -7.98046e-12 -1.67734e-12)
(0.000155587 1.7298e-11 7.10449e-12)
(0.000155588 -9.33854e-12 -7.70909e-13)
(0.000155588 1.62912e-11 1.19055e-11)
(0.000155588 -9.1134e-12 -3.12688e-12)
(0.000155588 1.3864e-11 7.29156e-13)
(0.000155589 -1.36243e-11 1.48358e-12)
(0.000155589 3.2929e-11 2.05345e-11)
(0.000155591 -5.63088e-11 -4.06402e-11)
(0.00015559 4.65724e-11 3.73347e-11)
(0.000155589 -5.51943e-11 -5.45921e-11)
(0.000155589 2.27862e-11 1.67437e-11)
(0.000155588 -3.48407e-11 -2.82365e-11)
(0.000155588 4.19235e-12 -9.1446e-13)
(0.000155589 -2.68942e-11 -1.89809e-11)
(0.000155589 1.36264e-11 2.59475e-12)
(0.000155589 -4.26413e-11 -3.72132e-11)
(0.000155588 4.78166e-11 3.12497e-11)
(0.000155588 -8.39211e-11 -6.79448e-11)
(0.000155588 5.04252e-11 4.45482e-11)
(0.000155588 -8.44515e-11 -7.98491e-11)
(0.000155588 5.19503e-11 3.4334e-11)
(0.000155588 -7.32554e-11 -5.37175e-11)
(0.000155588 5.25825e-11 3.28717e-11)
(0.000155589 -7.07456e-11 -5.44293e-11)
(0.000155588 4.34498e-11 3.75829e-11)
(0.000155589 -7.41177e-11 -7.89052e-11)
(0.000155588 5.01425e-11 5.99506e-11)
(0.000155589 -5.81911e-11 -7.25095e-11)
(0.000155588 6.47798e-11 7.78568e-11)
(0.000155589 -6.40911e-11 -6.68173e-11)
(0.000155589 6.05948e-11 6.60146e-11)
(0.00015559 -7.72335e-11 -9.09923e-11)
(0.000155589 7.10564e-11 8.32725e-11)
(0.00015559 -8.66514e-11 -9.8198e-11)
(0.000155589 8.96517e-11 1.04131e-10)
(0.00015559 -9.31896e-11 -1.11068e-10)
(0.00015559 8.84035e-11 1.0374e-10)
(0.00015559 -8.52824e-11 -9.75779e-11)
(0.00015559 8.68393e-11 9.80648e-11)
(0.00015559 -6.9094e-11 -7.79309e-11)
(0.000155591 9.11115e-11 9.76656e-11)
(0.00015559 -7.46885e-11 -8.19284e-11)
(0.000155591 7.22089e-11 8.00285e-11)
(0.000155591 -8.89208e-11 -8.9239e-11)
(0.000155591 5.76076e-11 5.08011e-11)
(0.000155591 -5.65692e-11 -5.4641e-11)
(0.000155592 5.14981e-11 4.71616e-11)
(0.000155591 -4.66511e-11 -5.05922e-11)
(0.000155592 2.3138e-11 2.61054e-11)
(0.000155591 -2.46523e-11 -2.32281e-11)
(0.000155592 4.34395e-12 3.37791e-12)
(0.000155591 -1.14431e-11 -1.59462e-11)
(0.000155592 -2.31939e-11 -1.93901e-11)
(0.000155591 -5.04911e-12 -5.92941e-13)
(0.000155592 -2.21592e-11 -2.46059e-11)
(0.000155592 5.53812e-12 7.74949e-12)
(0.000155592 -1.21973e-11 -1.74417e-11)
(0.000155592 8.53231e-12 5.6914e-12)
(0.000155592 -3.44398e-11 -3.18536e-11)
(0.000155592 6.90584e-12 1.37222e-11)
(0.000155592 -2.54959e-11 -2.97125e-11)
(0.000155592 1.67114e-11 1.9076e-11)
(0.000155592 -2.73653e-11 -2.95457e-11)
(0.000155593 1.10076e-11 1.31074e-11)
(0.000155593 -9.59724e-12 -1.40307e-11)
(0.000155593 2.60346e-11 2.97964e-11)
(0.000155593 -2.39528e-11 -2.72045e-11)
(0.000155593 2.30501e-11 1.54491e-11)
(0.000155593 -7.29339e-11 -6.86901e-11)
(0.000155593 2.16941e-11 2.94109e-11)
(0.000155593 -7.49551e-11 -8.30708e-11)
(0.000155593 3.44829e-11 4.06483e-11)
(0.000155593 -5.58952e-11 -6.26501e-11)
(0.000155593 3.78202e-11 4.9423e-11)
(0.000155593 -2.64931e-11 -3.99121e-11)
(0.000155593 4.8085e-11 5.29835e-11)
(0.000155594 -4.54937e-11 -5.3168e-11)
(0.000155593 3.7088e-11 5.25172e-11)
(0.000155594 -3.98628e-11 -5.72486e-11)
(0.000155593 7.68268e-11 8.35354e-11)
(0.000155593 -5.90271e-11 -6.46896e-11)
(0.000155593 6.83765e-11 8.59097e-11)
(0.000155593 -2.27017e-11 -3.81854e-11)
(0.000155593 7.53032e-11 8.39192e-11)
(0.000155592 -3.22578e-11 -3.43287e-11)
(0.000155592 6.95294e-11 6.44736e-11)
(0.000155593 -7.05571e-11 -6.48069e-11)
(0.000155592 6.64078e-11 6.89355e-11)
(0.000155592 -8.22388e-11 -8.5512e-11)
(0.000155592 9.81683e-11 1.0376e-10)
(0.000155591 -6.86282e-11 -7.5183e-11)
(0.000155592 9.45424e-11 1.00094e-10)
(0.000155591 -3.06698e-11 -4.10584e-11)
(0.000155592 6.89683e-11 7.49828e-11)
(0.000155591 -1.98692e-11 -2.1418e-11)
(0.000155591 6.86063e-11 6.3675e-11)
(0.000155591 -4.4789e-11 -3.85887e-11)
(0.00015559 7.27013e-11 7.51784e-11)
(0.000155591 -5.65864e-11 -5.469e-11)
(0.000155591 9.84932e-11 9.62485e-11)
(0.00015559 -4.55943e-11 -5.37764e-11)
(0.00015559 8.30164e-11 8.66564e-11)
(0.00015559 -6.31426e-11 -6.53113e-11)
(0.000155589 5.85148e-11 6.67807e-11)
(0.000155589 -5.31495e-11 -6.1042e-11)
(0.000155589 7.42891e-11 7.85252e-11)
(0.000155589 -6.12609e-11 -6.6351e-11)
(0.000155588 6.92608e-11 7.82625e-11)
(0.000155588 -4.12046e-11 -4.98837e-11)
(0.000155589 6.17385e-11 6.81669e-11)
(0.000155588 -3.00806e-11 -3.3017e-11)
(0.000155588 5.45741e-11 4.9095e-11)
(0.000155588 -4.63961e-11 -3.89747e-11)
(0.000155588 5.34617e-11 5.16167e-11)
(0.000155588 -4.56205e-11 -4.2985e-11)
(0.000155588 6.70117e-11 6.55927e-11)
(0.000155587 -3.56635e-11 -3.79727e-11)
(0.000155588 5.96415e-11 5.87234e-11)
(0.000155588 -2.35271e-11 -2.41426e-11)
(0.000155588 4.95292e-11 4.76039e-11)
(0.000155589 -2.83748e-11 -2.71026e-11)
(0.000155589 4.26907e-11 3.65138e-11)
(0.000155588 -4.09331e-11 -3.38531e-11)
(0.000155588 4.63537e-11 4.23193e-11)
(0.000155588 -3.96837e-11 -3.53617e-11)
(0.000155588 4.79722e-11 4.56509e-11)
(0.000155588 -1.97174e-11 -2.69402e-11)
(0.000155588 3.78615e-11 4.17005e-11)
(0.000155589 -4.33492e-11 -4.55448e-11)
(0.000155588 3.97652e-11 4.63995e-11)
(0.000155588 -5.45639e-11 -6.03598e-11)
(0.000155588 6.28253e-11 6.60875e-11)
(0.000155588 -6.61737e-11 -7.08795e-11)
(0.000155588 6.00554e-11 6.64847e-11)
(0.000155587 -5.10045e-11 -5.75807e-11)
(0.000155588 5.09325e-11 5.57867e-11)
(0.000155587 -3.81873e-11 -4.08921e-11)
(0.000155588 4.42947e-11 3.99564e-11)
(0.000155587 -4.93604e-11 -4.38827e-11)
(0.000155587 4.4049e-11 4.23667e-11)
(0.000155587 -4.85439e-11 -4.67389e-11)
(0.000155588 5.49043e-11 5.36725e-11)
(0.000155587 -4.01869e-11 -4.23322e-11)
(0.000155588 4.77833e-11 4.69729e-11)
(0.000155587 -2.42198e-11 -2.51543e-11)
(0.000155588 3.19424e-11 3.09977e-11)
(0.000155587 -1.40782e-11 -1.45424e-11)
(0.000155588 1.49179e-11 1.08851e-11)
(0.000155587 -1.22324e-11 -7.36545e-12)
(0.000155587 1.05993e-11 8.2534e-12)
(0.000155587 -7.61513e-13 2.80773e-12)
(0.000155587 1.19754e-11 1.0652e-11)
(0.000155587 -1.0642e-12 -6.04707e-13)
(0.000155587 3.50286e-12 -7.31993e-13)
(0.000155587 -1.99616e-12 1.93858e-12)
(0.000155587 7.74633e-12 2.84088e-12)
(0.000155587 -1.72421e-12 1.50229e-12)
(0.000155587 3.93267e-12 1.92654e-13)
(0.000155587 -3.77161e-12 1.92462e-12)
(0.000155586 5.5126e-12 2.07719e-12)
(0.000155586 -1.15179e-12 3.76051e-12)
(0.000155586 1.13188e-11 7.59508e-12)
(0.000155586 4.38539e-12 -7.12753e-14)
(0.000155586 1.17447e-11 6.37558e-12)
(0.000155586 -1.15852e-11 -5.07257e-12)
(0.000155585 1.49408e-11 9.19085e-12)
(0.000155585 -1.92239e-12 2.82067e-12)
(0.000155585 1.57972e-11 1.12554e-11)
(0.000155586 -7.63453e-12 8.91939e-13)
(0.000155585 2.89431e-11 1.82416e-11)
(0.000155585 -1.73737e-11 -6.93935e-12)
(0.000155585 3.01502e-11 2.3597e-11)
(0.000155585 -1.25327e-11 -1.27429e-11)
(0.000155584 4.63642e-11 3.63035e-11)
(0.000155585 -4.61111e-11 -3.39784e-11)
(0.000155584 5.50031e-11 4.64696e-11)
(0.000155584 -4.46134e-11 -3.8779e-11)
(0.000155584 6.62337e-11 6.11998e-11)
(0.000155584 -4.57087e-11 -4.97993e-11)
(0.000155584 4.94874e-11 5.78386e-11)
(0.000155585 -3.93242e-11 -4.12207e-11)
(0.000155586 3.69627e-11 4.08514e-11)
(0.000155586 -2.29884e-11 -2.92771e-11)
(0.000155586 4.29026e-11 4.2342e-11)
(0.000155586 -5.66407e-11 -4.21352e-11)
(0.000155586 5.34726e-11 4.88508e-11)
(0.000155586 -5.27872e-11 -4.2494e-11)
(0.000155588 5.14831e-11 4.50656e-11)
(0.000155588 -3.63462e-11 -3.41201e-11)
(0.000155588 5.44058e-11 4.41696e-11)
(0.000155589 -7.28458e-11 -5.71761e-11)
(0.000155586 1.45564e-10 1.37812e-10)
(0.000155593 -2.73118e-10 -2.55068e-10)
(0.000155584 4.51717e-10 4.37055e-10)
(0.000155597 -5.98163e-10 -5.95574e-10)
(0.000155586 7.4357e-10 7.3286e-10)
(0.000155594 -7.09152e-10 -7.1278e-10)
(0.000155593 5.8205e-10 5.82512e-10)
(0.000155591 -3.62302e-10 -3.82768e-10)
(0.000155596 2.05653e-10 1.9869e-10)
(0.0001556 -2.89139e-10 -2.67245e-10)
(0.000155592 7.48135e-10 7.74173e-10)
(0.000323658 8.40207e-05 6.66925e-05)
(0.00038349 4.5027e-06 3.33829e-06)
(0.000306452 -1.39026e-06 -1.4983e-06)
(0.000344632 1.10942e-06 1.00518e-06)
(0.000319966 -7.0674e-07 -6.40955e-07)
(0.000335733 4.59082e-07 4.10432e-07)
(0.000325587 -3.01018e-07 -2.61793e-07)
(0.000332186 1.96011e-07 1.6483e-07)
(0.000327867 -1.24011e-07 -1.01555e-07)
(0.000330659 7.48253e-08 5.93016e-08)
(0.000328903 -4.10181e-08 -3.30371e-08)
(0.000329926 2.08249e-08 1.68456e-08)
(0.000329368 -9.20843e-09 -8.13728e-09)
(0.000329637 3.79843e-09 3.33723e-09)
(0.000329515 -1.24086e-09 -1.45586e-09)
(0.00032956 3.88404e-10 3.01084e-10)
(0.000329541 -1.98124e-11 -1.86212e-10)
(0.000329545 2.37282e-11 -1.32269e-10)
(0.000329542 1.83412e-11 2.34843e-11)
(0.000329542 -4.04512e-11 -1.58476e-10)
(0.000329541 6.6281e-11 1.06639e-10)
(0.000329541 -4.37825e-11 -1.62906e-10)
(0.00032954 1.21483e-10 1.24045e-10)
(0.000329539 -6.58989e-11 -2.38593e-10)
(0.000329538 5.14201e-11 5.85337e-11)
(0.000329537 -3.82988e-11 -1.90402e-10)
(0.000329537 1.34821e-11 1.09027e-10)
(0.000329537 -7.3268e-11 -1.46633e-10)
(0.000329537 1.3008e-10 1.23184e-10)
(0.000329537 -1.80084e-10 -1.17108e-10)
(0.000329538 1.49932e-10 1.24493e-10)
(0.000329538 -1.52661e-10 -1.81992e-10)
(0.000329537 9.75466e-11 1.09992e-10)
(0.000329538 -1.15776e-10 -1.40801e-10)
(0.000329538 8.12486e-11 1.42607e-10)
(0.000329538 -9.1024e-11 -1.92682e-10)
(0.000329537 2.92154e-11 9.60742e-11)
(0.000329538 -6.85985e-11 -1.72174e-10)
(0.000329538 9.73996e-12 1.32359e-10)
(0.000329538 -8.89549e-11 -2.27196e-10)
(0.000329538 8.33437e-12 6.69275e-11)
(0.000329537 -6.0075e-11 -2.09796e-10)
(0.000329538 -1.12135e-11 8.29171e-11)
(0.000329537 -7.18138e-11 -1.52877e-10)
(0.000329538 6.7033e-11 9.43713e-11)
(0.000329537 -1.14115e-10 -9.4741e-11)
(0.000329538 7.49766e-11 7.57949e-11)
(0.000329537 -1.01837e-10 -5.88835e-11)
(0.000329539 7.7622e-11 8.9506e-11)
(0.000329538 -1.08544e-10 -3.29466e-11)
(0.00032954 3.711e-11 1.46788e-11)
(0.000329538 -5.9482e-11 -6.54414e-11)
(0.000329539 -3.94571e-13 1.01926e-11)
(0.000329539 -3.02752e-12 4.87887e-11)
(0.00032954 -9.49019e-12 7.14471e-11)
(0.000329541 -2.41286e-11 7.93306e-11)
(0.000329541 2.31168e-11 3.15228e-11)
(0.000329541 -5.7696e-11 4.24742e-12)
(0.000329542 4.59903e-11 5.86513e-11)
(0.000329543 -5.16013e-11 7.01613e-11)
(0.000329543 4.78185e-11 5.26287e-11)
(0.000329543 -5.71819e-11 -1.12667e-12)
(0.000329543 2.48928e-11 5.96525e-11)
(0.000329545 -4.13348e-11 4.05349e-11)
(0.000329544 4.22642e-11 1.20401e-10)
(0.000329548 -1.28541e-10 -5.66108e-11)
(0.000329546 8.93536e-11 -1.57583e-12)
(0.000329545 -1.07215e-10 -1.91172e-10)
(0.000329544 9.34843e-12 5.62189e-11)
(0.000329544 -4.30971e-11 -1.79355e-10)
(0.000329544 -5.54051e-11 7.58933e-11)
(0.000329544 -3.76823e-11 -1.58938e-10)
(0.000329544 -2.032e-11 9.50855e-11)
(0.000329544 -6.73975e-11 -2.09295e-10)
(0.000329542 8.64011e-11 1.06524e-10)
(0.000329542 -2.10247e-10 -1.87334e-10)
(0.000329543 9.17942e-11 6.71699e-11)
(0.000329541 -2.33351e-10 -2.38017e-10)
(0.000329542 1.01309e-10 6.14443e-11)
(0.000329542 -1.88449e-10 -1.3894e-10)
(0.000329542 9.19052e-11 9.57837e-11)
(0.000329544 -1.84417e-10 -1.40634e-10)
(0.000329542 8.06583e-11 6.44094e-11)
(0.000329543 -2.20109e-10 -2.46797e-10)
(0.000329542 1.13838e-10 1.83692e-10)
(0.000329543 -1.41134e-10 -2.11997e-10)
(0.000329542 1.38411e-10 2.75499e-10)
(0.000329544 -1.21e-10 -1.90807e-10)
(0.000329543 7.68187e-11 2.22008e-10)
(0.000329545 -1.49785e-10 -3.14666e-10)
(0.000329543 1.04117e-10 2.75426e-10)
(0.000329545 -1.54511e-10 -3.12746e-10)
(0.000329544 1.38949e-10 3.59594e-10)
(0.000329545 -1.62789e-10 -3.58448e-10)
(0.000329544 1.30476e-10 3.58853e-10)
(0.000329544 -1.21526e-10 -3.44523e-10)
(0.000329545 1.30889e-10 3.92279e-10)
(0.000329545 -1.01022e-10 -2.90815e-10)
(0.000329547 1.8403e-10 4.34398e-10)
(0.000329546 -1.38821e-10 -3.30544e-10)
(0.000329547 1.16945e-10 3.27503e-10)
(0.000329546 -1.90814e-10 -2.86816e-10)
(0.000329547 4.35835e-11 1.02349e-10)
(0.000329546 -5.50373e-11 -7.80668e-11)
(0.000329548 4.10212e-11 6.21812e-11)
(0.000329546 -5.14512e-11 -5.29893e-11)
(0.000329548 -4.41028e-11 -3.10388e-11)
(0.000329546 3.07088e-11 3.11247e-11)
(0.000329548 -8.74565e-11 -6.94619e-11)
(0.000329547 1.7698e-11 2.00054e-11)
(0.000329547 -1.62254e-10 -1.39137e-10)
(0.000329547 5.86591e-11 4.93693e-11)
(0.000329547 -1.68277e-10 -1.30364e-10)
(0.000329547 7.95342e-11 7.88064e-11)
(0.000329547 -1.04047e-10 -9.29506e-11)
(0.000329548 7.17165e-11 6.85035e-11)
(0.000329548 -1.9489e-10 -1.51063e-10)
(0.000329548 9.70951e-11 7.71692e-11)
(0.000329548 -1.7421e-10 -1.19814e-10)
(0.000329548 1.11235e-10 1.02021e-10)
(0.000329548 -1.61903e-10 -1.22344e-10)
(0.000329549 9.44344e-11 8.02788e-11)
(0.000329548 -9.51284e-11 -6.94938e-11)
(0.000329549 1.59234e-10 1.49296e-10)
(0.00032955 -1.27173e-10 -1.12546e-10)
(0.000329549 8.57069e-11 7.27811e-11)
(0.00032955 -3.08255e-10 -2.44875e-10)
(0.000329548 1.06875e-10 7.07373e-11)
(0.00032955 -3.28691e-10 -2.61538e-10)
(0.000329549 1.3432e-10 1.12315e-10)
(0.000329549 -2.26035e-10 -2.14248e-10)
(0.000329549 1.7266e-10 1.80122e-10)
(0.000329549 -1.09051e-10 -1.74443e-10)
(0.000329549 1.89753e-10 2.39344e-10)
(0.00032955 -1.67774e-10 -2.4835e-10)
(0.000329548 1.34731e-10 2.15371e-10)
(0.00032955 -1.22936e-10 -2.25904e-10)
(0.000329548 2.48146e-10 3.09416e-10)
(0.000329549 -1.51934e-10 -2.56331e-10)
(0.000329549 2.32884e-10 3.11627e-10)
(0.000329548 -3.47244e-11 -1.75234e-10)
(0.000329549 2.54178e-10 3.53555e-10)
(0.000329548 -5.72346e-11 -2.0377e-10)
(0.000329548 2.25082e-10 2.91301e-10)
(0.000329548 -2.07291e-10 -2.87051e-10)
(0.000329547 1.97143e-10 2.22353e-10)
(0.000329548 -2.35778e-10 -2.7795e-10)
(0.000329547 2.99635e-10 2.98009e-10)
(0.000329547 -1.73746e-10 -2.17361e-10)
(0.000329548 3.13154e-10 3.18533e-10)
(0.000329546 -5.80168e-11 -1.53757e-10)
(0.000329547 2.34822e-10 3.08056e-10)
(0.000329547 -2.95549e-11 -1.3814e-10)
(0.000329546 2.3929e-10 2.83661e-10)
(0.000329547 -1.12862e-10 -1.87688e-10)
(0.000329546 2.40229e-10 2.52297e-10)
(0.000329547 -1.42974e-10 -1.68581e-10)
(0.000329546 3.01382e-10 3.06163e-10)
(0.000329546 -8.23324e-11 -1.69984e-10)
(0.000329546 2.36732e-10 2.9475e-10)
(0.000329546 -1.34721e-10 -2.75082e-10)
(0.000329545 1.70318e-10 1.98669e-10)
(0.000329545 -1.11703e-10 -2.46542e-10)
(0.000329544 2.01509e-10 2.66157e-10)
(0.000329544 -1.16888e-10 -2.79845e-10)
(0.000329543 1.97694e-10 2.62932e-10)
(0.000329543 -7.55918e-11 -2.08701e-10)
(0.000329544 1.61262e-10 3.06459e-10)
(0.000329543 -3.01602e-11 -2.10363e-10)
(0.000329543 1.44967e-10 2.60527e-10)
(0.000329543 -1.01482e-10 -2.29191e-10)
(0.000329543 1.53308e-10 2.06511e-10)
(0.000329542 -1.11682e-10 -1.73431e-10)
(0.000329543 1.99421e-10 2.43898e-10)
(0.000329542 -8.90875e-11 -1.25229e-10)
(0.000329543 1.84841e-10 2.36071e-10)
(0.000329543 -7.19356e-11 -6.84403e-11)
(0.000329544 1.5433e-10 2.17708e-10)
(0.000329544 -8.51852e-11 -9.08019e-11)
(0.000329544 1.32343e-10 1.14744e-10)
(0.000329544 -1.04382e-10 -1.66721e-10)
(0.000329543 1.627e-10 1.25177e-10)
(0.000329544 -1.17992e-10 -1.32891e-10)
(0.000329543 1.44818e-10 1.88709e-10)
(0.000329544 -3.86032e-11 -1.29105e-10)
(0.000329543 8.85103e-11 2.12679e-10)
(0.000329545 -8.7224e-11 -2.46432e-10)
(0.000329543 9.79583e-11 1.54387e-10)
(0.000329544 -1.1386e-10 -2.53598e-10)
(0.000329543 1.42122e-10 2.25023e-10)
(0.000329544 -1.23251e-10 -3.00485e-10)
(0.000329543 1.41398e-10 2.17952e-10)
(0.000329542 -9.71455e-11 -2.38234e-10)
(0.000329543 1.01303e-10 2.56916e-10)
(0.000329543 -4.84848e-11 -2.37794e-10)
(0.000329543 8.89017e-11 2.1763e-10)
(0.000329543 -9.66202e-11 -2.49619e-10)
(0.000329543 1.03671e-10 1.65203e-10)
(0.000329542 -1.06846e-10 -1.95297e-10)
(0.000329543 1.41771e-10 1.95653e-10)
(0.000329542 -9.26779e-11 -1.48599e-10)
(0.000329543 1.32082e-10 1.88027e-10)
(0.000329542 -6.57909e-11 -8.89619e-11)
(0.000329543 9.42224e-11 1.67104e-10)
(0.000329543 -4.51747e-11 -8.4023e-11)
(0.000329543 5.72914e-11 6.76508e-11)
(0.000329542 -3.5425e-11 -1.16253e-10)
(0.000329542 6.01264e-11 7.92686e-11)
(0.000329542 -2.78041e-11 -2.6899e-11)
(0.000329543 4.69173e-11 1.4072e-10)
(0.000329543 -1.5811e-11 -5.99583e-11)
(0.000329543 3.71672e-11 2.17865e-11)
(0.000329542 -9.32986e-12 -9.06695e-11)
(0.000329542 5.44939e-11 8.32871e-11)
(0.000329542 -2.46428e-11 -6.08149e-11)
(0.000329542 3.32266e-11 5.77897e-11)
(0.000329542 -1.21929e-11 -9.90244e-11)
(0.000329541 4.7374e-11 6.5176e-11)
(0.000329541 -2.14891e-11 -4.35888e-11)
(0.000329541 5.26359e-11 1.11794e-10)
(0.000329541 1.78394e-11 -8.17085e-11)
(0.00032954 6.163e-11 5.9132e-11)
(0.00032954 -2.4011e-11 -1.2441e-10)
(0.000329539 7.03562e-11 9.17763e-11)
(0.000329539 -1.99861e-11 -4.25508e-11)
(0.000329539 3.65423e-11 1.73905e-10)
(0.00032954 -2.60003e-11 -4.67487e-11)
(0.00032954 9.62365e-11 1.53759e-10)
(0.00032954 -3.98426e-11 -1.00532e-10)
(0.000329539 9.8617e-11 1.43828e-10)
(0.000329539 -1.39298e-11 -9.91864e-11)
(0.000329537 1.1605e-10 2.112e-10)
(0.000329539 -1.14078e-10 -1.45791e-10)
(0.000329538 1.35668e-10 2.01888e-10)
(0.000329539 -8.87985e-11 -1.50828e-10)
(0.000329537 1.51758e-10 2.62955e-10)
(0.000329538 -1.08904e-10 -1.56686e-10)
(0.000329538 6.3736e-11 3.0791e-10)
(0.00032954 -8.32818e-11 -1.67471e-10)
(0.000329541 2.56462e-11 2.82696e-10)
(0.000329541 -1.76402e-11 -1.62325e-10)
(0.000329541 5.26366e-11 2.42644e-10)
(0.000329541 -1.21145e-10 -1.98128e-10)
(0.000329542 9.80904e-11 2.24719e-10)
(0.000329542 -1.51446e-10 -1.17353e-10)
(0.000329544 8.42752e-11 2.47497e-10)
(0.000329544 -1.07936e-10 -9.14558e-11)
(0.000329545 9.57605e-11 1.94377e-10)
(0.000329547 -1.41387e-10 -1.68621e-10)
(0.000329541 2.79097e-10 3.42411e-10)
(0.000329555 -6.35386e-10 -4.02512e-10)
(0.000329536 9.50695e-10 8.58799e-10)
(0.000329562 -1.36571e-09 -9.73181e-10)
(0.000329538 1.56776e-09 1.45711e-09)
(0.000329559 -1.50722e-09 -1.3972e-09)
(0.00032955 9.04206e-10 1.60335e-09)
(0.000329554 -4.31806e-10 -1.34559e-09)
(0.000329555 -3.26348e-10 1.39688e-09)
(0.000329568 -2.83869e-10 -1.47417e-09)
(0.000329563 1.06062e-09 3.45068e-09)
(0.00041726 8.40067e-05 6.75726e-05)
(0.000504298 5.4626e-06 3.61441e-06)
(0.000411079 -1.41883e-06 -1.62726e-06)
(0.000460839 1.25711e-06 1.10517e-06)
(0.000428722 -7.97718e-07 -7.04817e-07)
(0.000449307 5.20612e-07 4.51176e-07)
(0.000436043 -3.45144e-07 -2.87366e-07)
(0.000444652 2.28045e-07 1.80499e-07)
(0.000439056 -1.47052e-07 -1.10958e-07)
(0.000442631 9.07606e-08 6.47575e-08)
(0.000440418 -5.04235e-08 -3.61426e-08)
(0.000441689 2.61875e-08 1.85539e-08)
(0.000441009 -1.16295e-08 -9.02266e-09)
(0.000441332 4.9049e-09 3.76816e-09)
(0.000441187 -1.63849e-09 -1.66474e-09)
(0.00044124 5.30715e-10 3.76073e-10)
(0.000441218 -7.93057e-11 -2.28356e-10)
(0.000441222 9.67144e-11 -1.19235e-10)
(0.000441218 -6.2843e-11 1.15594e-11)
(0.00044122 1.10622e-11 -1.4887e-10)
(0.000441217 1.65362e-11 9.45238e-11)
(0.000441218 3.51659e-11 -1.60853e-10)
(0.000441217 1.11348e-10 1.11764e-10)
(0.000441216 -3.0653e-11 -2.4018e-10)
(0.000441215 -2.17881e-11 5.62714e-11)
(0.000441213 2.79005e-11 -1.87809e-10)
(0.000441214 -7.49348e-11 1.06698e-10)
(0.000441213 -3.00542e-11 -1.34766e-10)
(0.000441213 1.29567e-10 1.03034e-10)
(0.000441213 -2.13394e-10 -9.41464e-11)
(0.000441214 1.76515e-10 1.08293e-10)
(0.000441214 -1.86544e-10 -1.7953e-10)
(0.000441213 7.16296e-11 1.11367e-10)
(0.000441214 -9.82727e-11 -1.40545e-10)
(0.000441214 5.07189e-11 1.41027e-10)
(0.000441215 -7.24231e-11 -1.92707e-10)
(0.000441213 -5.83231e-11 1.00354e-10)
(0.000441214 -8.00986e-12 -1.73575e-10)
(0.000441214 -9.28746e-11 1.3438e-10)
(0.000441214 -7.0859e-11 -2.28945e-10)
(0.000441214 -9.12963e-11 7.24705e-11)
(0.000441213 -1.31494e-11 -2.06689e-10)
(0.000441214 -1.18534e-10 8.17478e-11)
(0.000441212 -4.40029e-11 -1.42071e-10)
(0.000441214 4.13309e-11 7.1342e-11)
(0.000441212 -1.40198e-10 -7.44093e-11)
(0.000441214 6.68159e-11 4.93098e-11)
(0.000441213 -1.18545e-10 -3.80804e-11)
(0.000441215 8.20882e-11 5.9247e-11)
(0.000441214 -1.68386e-10 -4.20669e-12)
(0.000441215 5.42855e-11 3.3846e-12)
(0.000441213 -1.35253e-10 -5.2693e-11)
(0.000441215 1.39576e-11 -3.09214e-11)
(0.000441214 -2.22261e-11 8.5689e-11)
(0.000441215 5.59862e-12 3.02359e-11)
(0.000441217 -6.4867e-11 1.13534e-10)
(0.000441217 6.43032e-11 1.61571e-11)
(0.000441217 -1.29376e-10 1.72742e-11)
(0.000441217 9.9256e-11 2.90202e-11)
(0.000441219 -9.43839e-11 8.92102e-11)
(0.000441219 9.87347e-11 3.96038e-11)
(0.00044122 -1.29819e-10 1.02277e-11)
(0.000441219 5.69432e-11 2.69502e-11)
(0.000441222 -5.62497e-11 6.39391e-11)
(0.00044122 4.29065e-11 9.29356e-11)
(0.000441226 -1.87066e-10 -4.90843e-11)
(0.000441222 6.4239e-11 -4.46776e-12)
(0.000441221 -1.21247e-10 -1.93443e-10)
(0.00044122 -7.44396e-11 4.83193e-11)
(0.00044122 -1.18446e-11 -1.79047e-10)
(0.000441219 -1.83637e-10 6.76171e-11)
(0.000441219 -1.80917e-11 -1.57143e-10)
(0.000441219 -1.07509e-10 8.01615e-11)
(0.000441219 -5.79419e-11 -2.10423e-10)
(0.000441217 5.76558e-11 8.35823e-11)
(0.000441217 -2.86885e-10 -1.73244e-10)
(0.000441218 6.07771e-11 6.28456e-11)
(0.000441216 -3.77451e-10 -2.41445e-10)
(0.000441217 9.51725e-11 3.09957e-11)
(0.000441216 -2.69676e-10 -1.17399e-10)
(0.000441216 8.30406e-11 6.688e-11)
(0.000441218 -2.78706e-10 -1.21511e-10)
(0.000441216 6.97834e-11 6.11651e-11)
(0.000441217 -3.70706e-10 -2.65858e-10)
(0.000441215 1.58069e-10 2.06678e-10)
(0.000441218 -1.91439e-10 -2.49999e-10)
(0.000441215 1.76709e-10 3.11785e-10)
(0.000441219 -9.93748e-11 -2.16687e-10)
(0.000441217 -1.12606e-11 2.45275e-10)
(0.000441219 -1.37349e-10 -3.5906e-10)
(0.000441216 4.09847e-11 3.19157e-10)
(0.000441219 -1.11126e-10 -3.60773e-10)
(0.000441217 6.80445e-11 4.11266e-10)
(0.000441219 -1.0911e-10 -4.17881e-10)
(0.000441218 4.64652e-11 4.15307e-10)
(0.000441218 -1.79497e-11 -4.01548e-10)
(0.000441219 5.86158e-11 4.4437e-10)
(0.000441218 -1.57899e-11 -3.38887e-10)
(0.000441221 2.0553e-10 4.75302e-10)
(0.000441219 -1.14017e-10 -3.73242e-10)
(0.000441221 7.11656e-11 3.64636e-10)
(0.00044122 -2.08509e-10 -3.20031e-10)
(0.000441222 -1.04051e-10 1.19274e-10)
(0.000441219 7.22017e-11 -1.03173e-10)
(0.000441222 -8.39224e-11 7.40843e-11)
(0.000441219 4.45165e-11 -7.71984e-11)
(0.000441222 -2.2202e-10 -1.26327e-11)
(0.000441219 1.99209e-10 1.27092e-11)
(0.000441222 -2.81835e-10 -6.2382e-11)
(0.00044122 1.03462e-10 2.58699e-12)
(0.000441221 -3.92991e-10 -1.27029e-10)
(0.00044122 2.00708e-10 3.64356e-11)
(0.00044122 -4.1448e-10 -1.23588e-10)
(0.00044122 2.21282e-10 6.78457e-11)
(0.00044122 -2.64212e-10 -9.46293e-11)
(0.000441221 1.94599e-10 5.35247e-11)
(0.00044122 -4.45522e-10 -1.39404e-10)
(0.00044122 2.71393e-10 6.52588e-11)
(0.00044122 -4.2079e-10 -1.13238e-10)
(0.000441221 2.69269e-10 9.23969e-11)
(0.000441221 -3.79483e-10 -1.19259e-10)
(0.000441221 2.52585e-10 6.93424e-11)
(0.000441221 -2.38095e-10 -6.77726e-11)
(0.000441221 3.84589e-10 1.40772e-10)
(0.000441222 -3.14147e-10 -1.19629e-10)
(0.000441221 1.97382e-10 6.04869e-11)
(0.000441222 -6.39164e-10 -2.38824e-10)
(0.00044122 2.46718e-10 6.19346e-11)
(0.000441222 -6.8244e-10 -2.62299e-10)
(0.00044122 2.71014e-10 1.06137e-10)
(0.000441221 -4.39409e-10 -2.22123e-10)
(0.00044122 3.76031e-10 1.79069e-10)
(0.00044122 -2.2988e-10 -1.89243e-10)
(0.00044122 3.78238e-10 2.51744e-10)
(0.000441221 -3.44963e-10 -2.58905e-10)
(0.000441219 2.55168e-10 2.39116e-10)
(0.000441221 -2.20489e-10 -2.43425e-10)
(0.000441219 4.27706e-10 3.32807e-10)
(0.000441221 -2.16173e-10 -2.72087e-10)
(0.00044122 4.15816e-10 3.39515e-10)
(0.00044122 -2.79642e-11 -1.90876e-10)
(0.000441221 4.61593e-10 3.81436e-10)
(0.00044122 -5.72824e-11 -2.1371e-10)
(0.00044122 4.16761e-10 3.01117e-10)
(0.000441221 -3.68779e-10 -2.85063e-10)
(0.00044122 3.26558e-10 2.35706e-10)
(0.00044122 -3.77467e-10 -2.8305e-10)
(0.00044122 4.93084e-10 3.137e-10)
(0.000441219 -2.41815e-10 -2.25245e-10)
(0.000441221 5.5744e-10 3.33173e-10)
(0.000441218 -6.35963e-11 -1.64508e-10)
(0.00044122 4.38013e-10 3.28596e-10)
(0.00044122 -2.7352e-11 -1.39732e-10)
(0.00044122 4.56e-10 2.90715e-10)
(0.000441221 -1.85981e-10 -1.77776e-10)
(0.000441219 4.19517e-10 2.65803e-10)
(0.000441221 -2.0556e-10 -1.65891e-10)
(0.000441221 5.11199e-10 3.22236e-10)
(0.00044122 -7.0954e-11 -1.82484e-10)
(0.000441221 3.89717e-10 3.16991e-10)
(0.000441221 -1.94247e-10 -2.85223e-10)
(0.000441219 2.61795e-10 2.25147e-10)
(0.00044122 -1.4514e-10 -2.61044e-10)
(0.000441219 3.00448e-10 2.90062e-10)
(0.000441219 -1.23758e-10 -2.93994e-10)
(0.000441218 3.0156e-10 2.91174e-10)
(0.000441218 -6.54981e-11 -2.25593e-10)
(0.000441219 2.48607e-10 3.30367e-10)
(0.000441218 1.31005e-11 -2.16964e-10)
(0.000441219 2.30363e-10 2.65482e-10)
(0.000441218 -1.41013e-10 -2.22786e-10)
(0.000441219 2.43453e-10 2.15403e-10)
(0.000441217 -1.5513e-10 -1.71965e-10)
(0.000441219 3.35601e-10 2.51516e-10)
(0.000441217 -1.20789e-10 -1.28115e-10)
(0.00044122 3.36015e-10 2.39555e-10)
(0.000441219 -1.13769e-10 -6.70953e-11)
(0.000441221 3.00758e-10 2.19683e-10)
(0.000441221 -1.50245e-10 -9.00881e-11)
(0.000441221 2.38335e-10 1.11416e-10)
(0.000441221 -1.79027e-10 -1.51638e-10)
(0.000441219 2.93114e-10 1.26639e-10)
(0.000441221 -1.91558e-10 -1.24411e-10)
(0.00044122 2.56263e-10 1.93551e-10)
(0.000441221 -4.09076e-11 -1.37779e-10)
(0.00044122 1.42574e-10 2.26793e-10)
(0.000441222 -1.15825e-10 -2.51143e-10)
(0.00044122 1.27892e-10 1.77832e-10)
(0.000441222 -1.34676e-10 -2.65053e-10)
(0.00044122 1.73124e-10 2.45719e-10)
(0.000441221 -1.20852e-10 -3.11063e-10)
(0.00044122 1.7531e-10 2.43832e-10)
(0.00044122 -8.96898e-11 -2.53499e-10)
(0.000441221 1.15462e-10 2.74782e-10)
(0.00044122 -1.05672e-11 -2.40811e-10)
(0.000441221 1.03762e-10 2.18343e-10)
(0.00044122 -1.12956e-10 -2.39862e-10)
(0.000441221 1.33684e-10 1.71119e-10)
(0.000441219 -1.33475e-10 -1.9191e-10)
(0.000441221 2.07864e-10 1.96827e-10)
(0.000441219 -1.19618e-10 -1.49511e-10)
(0.000441221 2.1495e-10 1.83066e-10)
(0.000441219 -1.012e-10 -8.68488e-11)
(0.000441221 1.75361e-10 1.59045e-10)
(0.00044122 -8.95845e-11 -7.95766e-11)
(0.000441221 1.1631e-10 5.59849e-11)
(0.00044122 -7.87556e-11 -9.46317e-11)
(0.00044122 1.37697e-10 6.95577e-11)
(0.00044122 -7.47095e-11 -1.53338e-11)
(0.000441221 1.16902e-10 1.2725e-10)
(0.000441221 -5.45181e-11 -5.21184e-11)
(0.000441221 9.05499e-11 9.68873e-12)
(0.00044122 -4.02491e-11 -7.02535e-11)
(0.00044122 1.35094e-10 7.0153e-11)
(0.00044122 -7.23109e-11 -4.7948e-11)
(0.00044122 8.46815e-11 4.28215e-11)
(0.00044122 -4.5267e-11 -7.67485e-11)
(0.000441219 1.17053e-10 5.4573e-11)
(0.000441219 -6.29216e-11 -3.04847e-11)
(0.000441219 1.23702e-10 9.87903e-11)
(0.000441219 1.15576e-11 -7.82457e-11)
(0.000441218 1.23405e-10 4.3507e-11)
(0.000441218 -5.39474e-11 -1.05144e-10)
(0.000441217 1.44242e-10 8.01988e-11)
(0.000441217 -5.42242e-11 -3.5592e-11)
(0.000441217 7.93184e-11 1.52693e-10)
(0.000441218 -5.38184e-11 -3.4135e-11)
(0.000441218 1.80632e-10 1.37097e-10)
(0.000441218 -7.7584e-11 -9.21717e-11)
(0.000441217 1.73702e-10 1.35849e-10)
(0.000441217 -1.9552e-11 -1.04322e-10)
(0.000441215 1.81971e-10 1.95828e-10)
(0.000441217 -1.68496e-10 -1.41321e-10)
(0.000441215 2.00946e-10 1.97057e-10)
(0.000441217 -1.08552e-10 -1.56233e-10)
(0.000441215 2.09035e-10 2.68634e-10)
(0.000441217 -1.26702e-10 -1.81806e-10)
(0.000441216 4.8492e-11 3.29478e-10)
(0.000441218 -6.78052e-11 -1.84295e-10)