/*--------------------------------*- C++ -*----------------------------------*\
  =========                 |
  \\      /  F ield         | OpenFOAM: The Open Source CFD Toolbox
   \\    /   O peration     | Website:  https://openfoam.org
    \\  /    A nd           | Version:  13
     \\/     M anipulation  |
\*---------------------------------------------------------------------------*/
FoamFile
{
    format      ascii;
    class       surfaceScalarField;
    location    "29";
    object      phi;
}
// * * * * * * * * * * * * * * * * * * * * * * * * * * * * * * * * * * * * * //

dimensions      [0 3 -1 0 0 0 0];

internalField   nonuniform List<scalar> 
28364
(
8.2282e-15
3.84114e-14
3.84114e-14
6.1974e-15
1.01539e-15
1.01543e-15
7.58271e-15
-6.92626e-16
-6.92651e-16
6.6082e-15
4.87221e-16
4.87309e-16
7.2915e-15
-3.41659e-16
-3.41653e-16
6.81032e-15
2.40439e-16
2.4047e-16
7.15202e-15
-1.70726e-16
-1.70712e-16
6.90652e-15
1.22559e-16
1.22416e-16
7.08343e-15
-8.81016e-17
-8.81844e-17
6.95771e-15
6.30946e-17
6.29836e-17
7.04377e-15
-4.30796e-17
-4.31557e-17
6.98846e-15
2.80911e-17
2.80955e-17
7.02121e-15
-1.70931e-17
-1.69278e-17
7.00397e-15
9.19997e-18
9.12705e-18
7.01203e-15
-4.36312e-18
-4.30166e-18
7.00921e-15
1.52509e-18
1.55205e-18
7.00943e-15
-2.78302e-19
-2.73227e-19
7.01009e-15
-3.68062e-19
-3.55314e-19
7.00886e-15
5.85938e-19
5.8465e-19
7.01021e-15
-6.72965e-19
-6.82445e-19
7.00877e-15
6.86205e-19
6.8902e-19
7.01015e-15
-6.8909e-19
-6.968e-19
7.00872e-15
6.99244e-19
7.07886e-19
7.01016e-15
-7.00534e-19
-7.04431e-19
7.00866e-15
6.90465e-19
6.84359e-19
7.01012e-15
-6.84988e-19
-6.61832e-19
7.00874e-15
6.73789e-19
6.86466e-19
7.01004e-15
-6.15901e-19
-6.23622e-19
7.00887e-15
5.57314e-19
5.62212e-19
7.00988e-15
-4.9135e-19
-4.96333e-19
7.00902e-15
3.99014e-19
4.28862e-19
7.00975e-15
-3.43681e-19
-3.68785e-19
7.00908e-15
3.23806e-19
3.30491e-19
7.00976e-15
-3.23396e-19
-3.28841e-19
7.00903e-15
3.46502e-19
3.56502e-19
7.00978e-15
-3.80036e-19
-3.82812e-19
7.00904e-15
3.84673e-19
3.68099e-19
7.00974e-15
-3.58672e-19
-3.62095e-19
7.00909e-15
4.28901e-19
2.57063e-19
7.00975e-15
-4.53855e-19
-2.53966e-19
7.00906e-15
4.09446e-19
3.29876e-19
7.00978e-15
-3.89937e-19
-3.92295e-19
7.00906e-15
4.9088e-19
2.89831e-19
7.00975e-15
-5.20574e-19
-2.34446e-19
7.0091e-15
3.55076e-19
3.35604e-19
7.00966e-15
-3.20603e-19
-2.96729e-19
7.00919e-15
2.5944e-19
2.51795e-19
7.00956e-15
-2.08242e-19
-2.05599e-19
7.00926e-15
1.58159e-19
1.67855e-19
7.00954e-15
-1.51766e-19
-1.62441e-19
1.6936e-19
1.89566e-19
1.63001e-14
4.5398e-14
6.17644e-14
1.41031e-14
1.4458e-15
1.76673e-15
1.55892e-14
-9.76581e-16
-1.20212e-15
1.45417e-14
6.8858e-16
8.4627e-16
1.52758e-14
-4.82137e-16
-5.9372e-16
1.47588e-14
3.38131e-16
4.18507e-16
1.51263e-14
-2.39555e-16
-2.97877e-16
1.48613e-14
1.72064e-16
2.13966e-16
1.50532e-14
-1.24451e-16
-1.53692e-16
1.49165e-14
9.21694e-17
1.08638e-16
1.50101e-14
-6.45876e-17
-7.25911e-17
1.49504e-14
4.46662e-17
4.56033e-17
1.49852e-14
-2.91721e-17
-2.63621e-17
1.49675e-14
1.67438e-17
1.33453e-17
1.49755e-14
-8.737e-18
-5.44632e-18
1.49729e-14
3.54248e-18
1.31104e-18
1.49728e-14
-1.45504e-18
3.50182e-19
1.49736e-14
-1.511e-19
-1.17158e-18
1.49722e-14
3.49276e-19
1.4746e-18
1.49736e-14
-5.78922e-19
-1.5725e-18
1.4972e-14
5.67222e-19
1.50994e-18
1.49735e-14
-6.51723e-19
-1.50971e-18
1.4972e-14
4.67892e-19
1.70306e-18
1.49735e-14
-4.75546e-19
-1.67431e-18
1.49719e-14
4.0207e-19
1.58365e-18
1.49735e-14
-3.82208e-19
-1.5726e-18
1.4972e-14
6.32948e-19
1.46985e-18
1.49734e-14
-4.69982e-19
-1.39206e-18
1.49721e-14
4.89426e-19
1.20011e-18
1.49732e-14
-4.50293e-19
-1.07059e-18
1.49723e-14
1.22133e-19
1.10845e-18
1.4973e-14
-3.98694e-20
-1.01399e-18
1.49724e-14
2.13461e-19
7.575e-19
1.49731e-14
-1.97645e-19
-7.61999e-19
1.49723e-14
1.48397e-19
9.05821e-19
1.49731e-14
-2.90583e-19
-9.31573e-19
1.49723e-14
3.29267e-19
8.8574e-19
1.4973e-14
-3.02777e-19
-8.4965e-19
1.49724e-14
5.15635e-19
6.79111e-19
1.4973e-14
-6.54782e-19
-6.10417e-19
1.49723e-14
5.17233e-19
7.55156e-19
1.49731e-14
-3.55309e-19
-9.78225e-19
1.49723e-14
7.99838e-19
6.27955e-19
1.4973e-14
-1.01728e-18
-4.08142e-19
1.49723e-14
4.12099e-19
7.55061e-19
1.49729e-14
-3.74512e-19
-7.0363e-19
1.49724e-14
2.62105e-19
6.06583e-19
1.49728e-14
-1.8036e-19
-5.27367e-19
1.49725e-14
1.12274e-19
4.09294e-19
1.49728e-14
-1.34865e-19
-3.84908e-19
1.66297e-19
5.21223e-19
2.13978e-14
4.19422e-14
6.7109e-14
1.93989e-14
1.43305e-15
2.01176e-15
2.07483e-14
-9.58694e-16
-1.36718e-15
1.97968e-14
6.7741e-16
9.62633e-16
2.04637e-14
-4.7369e-16
-6.75315e-16
1.99936e-14
3.31331e-16
4.76091e-16
2.03284e-14
-2.34568e-16
-3.38971e-16
2.00861e-14
1.68998e-16
2.43819e-16
2.02619e-14
-1.23078e-16
-1.75335e-16
2.01373e-14
9.32846e-17
1.24435e-16
2.02218e-14
-6.63602e-17
-8.31627e-17
2.01693e-14
4.72428e-17
5.24025e-17
2.01989e-14
-3.18533e-17
-3.05144e-17
2.01846e-14
1.86564e-17
1.54305e-17
2.01905e-14
-1.00702e-17
-6.21371e-18
2.01891e-14
4.16807e-18
1.48713e-18
2.01883e-14
-1.92631e-18
3.07487e-19
2.01893e-14
5.23393e-20
-1.3514e-18
2.01877e-14
1.1867e-19
1.58239e-18
2.01892e-14
-3.7107e-19
-1.7146e-18
2.01876e-14
3.51952e-19
1.63777e-18
2.0189e-14
-4.29488e-19
-1.67944e-18
2.01875e-14
1.65726e-19
1.79226e-18
2.0189e-14
-1.61948e-19
-1.76378e-18
2.01874e-14
7.23726e-20
1.63491e-18
2.0189e-14
-6.74642e-20
-1.58853e-18
2.01875e-14
4.24282e-19
1.61576e-18
2.01889e-14
-2.67621e-19
-1.46404e-18
2.01877e-14
3.31915e-19
1.29111e-18
2.01887e-14
-3.01561e-19
-1.16115e-18
2.01878e-14
-1.2082e-19
1.08516e-18
2.01886e-14
2.07047e-19
-9.65723e-19
2.01879e-14
5.53612e-20
7.93947e-19
2.01886e-14
-4.94627e-20
-7.93224e-19
2.01878e-14
-1.85789e-20
9.14294e-19
2.01886e-14
-1.55075e-19
-9.90139e-19
2.01878e-14
2.21252e-19
9.54184e-19
2.01885e-14
-1.81901e-19
-9.0247e-19
2.01879e-14
5.26496e-19
7.69871e-19
2.01885e-14
-7.21965e-19
-7.40131e-19
2.01878e-14
5.06651e-19
8.5893e-19
2.01885e-14
-2.62839e-19
-1.02162e-18
2.01878e-14
9.24538e-19
8.14153e-19
2.01885e-14
-1.25701e-18
-6.59677e-19
2.01878e-14
3.69941e-19
8.36134e-19
2.01884e-14
-3.3747e-19
-7.91009e-19
2.01879e-14
1.9904e-19
6.75251e-19
2.01883e-14
-1.08286e-19
-5.7836e-19
2.0188e-14
3.08377e-20
4.39144e-19
2.01883e-14
-7.95557e-20
-4.03597e-19
1.15219e-19
5.87502e-19
2.48976e-14
3.38605e-14
6.82351e-14
2.30399e-14
1.20107e-15
2.08973e-15
2.42974e-14
-7.97195e-16
-1.41882e-15
2.34116e-14
5.64344e-16
9.98833e-16
2.40326e-14
-3.9425e-16
-7.00436e-16
2.35945e-14
2.75016e-16
4.93706e-16
2.39068e-14
-1.94451e-16
-3.51733e-16
2.36803e-14
1.40232e-16
2.53704e-16
2.38447e-14
-1.02348e-16
-1.83236e-16
2.3729e-14
7.88425e-17
1.31098e-16
2.38069e-14
-5.6504e-17
-8.81523e-17
2.37594e-14
4.10813e-17
5.60198e-17
2.37854e-14
-2.84384e-17
-3.29955e-17
2.37734e-14
1.69084e-17
1.6791e-17
2.37779e-14
-9.28846e-18
-6.886e-18
2.37772e-14
3.80313e-18
1.77435e-18
2.3776e-14
-1.81865e-18
1.08286e-19
2.37771e-14
9.03562e-20
-1.28405e-18
2.37755e-14
9.21132e-21
1.51868e-18
2.3777e-14
-2.30861e-19
-1.65948e-18
2.37754e-14
2.24512e-19
1.56912e-18
2.37768e-14
-2.61088e-19
-1.62181e-18
2.37753e-14
-5.41402e-20
1.72586e-18
2.37768e-14
8.0635e-20
-1.70149e-18
2.37752e-14
-1.78568e-19
1.56918e-18
2.37767e-14
1.71306e-19
-1.52108e-18
2.37753e-14
2.25472e-19
1.59013e-18
2.37767e-14
-1.32132e-19
-1.40705e-18
2.37755e-14
2.27323e-19
1.23872e-18
2.37765e-14
-1.93633e-19
-1.11099e-18
2.37756e-14
-2.56741e-19
9.93322e-19
2.37764e-14
3.35012e-19
-8.63637e-19
2.37757e-14
-2.03276e-20
7.15042e-19
2.37764e-14
3.55427e-21
-7.12671e-19
2.37756e-14
-7.57659e-20
8.35253e-19
2.37764e-14
-7.58105e-20
-9.40712e-19
2.37756e-14
1.62105e-19
9.15037e-19
2.37763e-14
-9.91003e-20
-8.58518e-19
2.37756e-14
5.64749e-19
7.61578e-19
2.37763e-14
-7.71144e-19
-7.59109e-19
2.37756e-14
4.82776e-19
8.62877e-19
2.37763e-14
-1.70488e-19
-1.00646e-18
2.37756e-14
9.87159e-19
8.75181e-19
2.37763e-14
-1.39749e-18
-7.51091e-19
2.37756e-14
3.07023e-19
8.40745e-19
2.37762e-14
-2.87606e-19
-7.96017e-19
2.37757e-14
1.44971e-19
6.66289e-19
2.37761e-14
-6.22319e-20
-5.58587e-19
2.37758e-14
-1.90385e-20
4.09346e-19
2.3776e-14
-4.63805e-20
-3.74083e-19
7.9744e-20
5.77746e-19
2.72704e-14
2.3495e-14
6.81461e-14
2.55112e-14
8.51828e-16
2.10851e-15
2.67072e-14
-5.62188e-16
-1.43087e-15
2.58658e-14
3.98584e-16
1.00718e-15
2.64558e-14
-2.7837e-16
-7.05985e-16
2.60392e-14
1.93796e-16
4.97154e-16
2.63364e-14
-1.36905e-16
-3.54036e-16
2.61208e-14
9.88796e-17
2.55417e-16
2.62771e-14
-7.20857e-17
-1.84739e-16
2.61678e-14
5.63138e-17
1.32848e-16
2.6241e-14
-4.04645e-17
-8.96449e-17
2.61969e-14
3.00498e-17
5.73258e-17
2.62206e-14
-2.1508e-17
-3.40719e-17
2.621e-14
1.30394e-17
1.74408e-17
2.62137e-14
-7.25118e-18
-7.22234e-18
2.62133e-14
2.91392e-18
1.89333e-18
2.6212e-14
-1.41526e-18
2.80886e-20
2.62131e-14
5.56065e-20
-1.26306e-18
2.62115e-14
-7.83543e-20
1.52546e-18
2.6213e-14
-9.94898e-20
-1.65696e-18
2.62113e-14
1.23583e-19
1.55364e-18
2.62128e-14
-1.34506e-19
-1.58265e-18
2.62112e-14
-2.30275e-19
1.69545e-18
2.62127e-14
2.68981e-19
-1.66013e-18
2.62111e-14
-3.80087e-19
1.53355e-18
2.62127e-14
3.74046e-19
-1.495e-18
2.62113e-14
4.17683e-20
1.56598e-18
2.62127e-14
-7.04027e-21
-1.40195e-18
2.62114e-14
1.30581e-19
1.23081e-18
2.62125e-14
-9.48594e-20
-1.09829e-18
2.62115e-14
-3.58847e-19
9.74978e-19
2.62123e-14
4.20416e-19
-8.39325e-19
2.62116e-14
-6.42415e-20
6.93562e-19
2.62124e-14
2.39769e-20
-6.94899e-19
2.62115e-14
-1.03673e-19
8.28093e-19
2.62123e-14
-1.36458e-20
-9.2811e-19
2.62115e-14
1.15329e-19
9.09099e-19
2.62122e-14
-3.44321e-20
-8.38691e-19
2.62116e-14
5.83017e-19
8.04312e-19
2.62122e-14
-7.82057e-19
-8.05161e-19
2.62115e-14
4.43764e-19
8.73655e-19
2.62122e-14
-7.29708e-20
-9.99203e-19
2.62115e-14
9.87077e-19
9.41801e-19
2.62122e-14
-1.44743e-18
-8.40026e-19
2.62116e-14
2.3496e-19
8.37326e-19
2.62121e-14
-2.32541e-19
-7.93905e-19
2.62116e-14
1.02091e-19
6.54571e-19
2.6212e-14
-3.3719e-20
-5.46776e-19
2.62117e-14
-4.60535e-20
3.91014e-19
2.6212e-14
-1.35658e-20
-3.73204e-19
3.67975e-20
5.85774e-19
2.87518e-14
1.19909e-14
6.78034e-14
2.70553e-14
4.39786e-16
2.1086e-15
2.82132e-14
-2.89267e-16
-1.43079e-15
2.73994e-14
2.05246e-16
1.00718e-15
2.79703e-14
-1.43421e-16
-7.05877e-16
2.7567e-14
9.95688e-17
4.96845e-16
2.78548e-14
-7.02889e-17
-3.53675e-16
2.76461e-14
5.09411e-17
2.55122e-16
2.77972e-14
-3.68894e-17
-1.8452e-16
2.7692e-14
2.95506e-17
1.32976e-16
2.77622e-14
-2.12131e-17
-8.98371e-17
2.77203e-14
1.64605e-17
5.75993e-17
2.77425e-14
-1.2677e-17
-3.44496e-17
2.77327e-14
8.02367e-18
1.77033e-17
2.77359e-14
-4.51592e-18
-7.34767e-18
2.77358e-14
1.73466e-18
1.95513e-18
2.77344e-14
-8.51458e-19
-1.26039e-20
2.77355e-14
-1.39721e-20
-1.25826e-18
2.77339e-14
-1.38389e-19
1.51432e-18
2.77354e-14
1.41086e-20
-1.64474e-18
2.77337e-14
4.33383e-20
1.53921e-18
2.77352e-14
-3.1555e-20
-1.56511e-18
2.77336e-14
-3.67653e-19
1.6693e-18
2.77351e-14
4.1671e-19
-1.63631e-18
2.77335e-14
-5.43796e-19
1.51362e-18
2.77351e-14
5.42882e-19
-1.47535e-18
2.77337e-14
-1.27193e-19
1.55033e-18
2.77351e-14
9.62053e-20
-1.38334e-18
2.77338e-14
4.53786e-20
1.21961e-18
2.77349e-14
-4.75518e-21
-1.09072e-18
2.77339e-14
-4.24146e-19
9.52516e-19
2.77347e-14
4.64751e-19
-8.14844e-19
2.7734e-14
-8.71287e-20
6.84774e-19
2.77348e-14
2.26301e-20
-6.85098e-19
2.77339e-14
-1.02594e-19
8.13405e-19
2.77347e-14
3.37705e-20
-9.17057e-19
2.77339e-14
7.60122e-20
9.06179e-19
2.77346e-14
1.91226e-20
-8.28241e-19
2.7734e-14
5.66844e-19
8.65419e-19
2.77346e-14
-7.40343e-19
-8.73784e-19
2.77339e-14
3.83502e-19
8.94966e-19
2.77346e-14
2.28732e-20
-9.88719e-19
2.77339e-14
9.21078e-19
1.0211e-18
2.77346e-14
-1.3977e-18
-9.49561e-19
2.77339e-14
1.54516e-19
8.36922e-19
2.77345e-14
-1.71048e-19
-7.94886e-19
2.7734e-14
6.40419e-20
6.49119e-19
2.77344e-14
-1.53406e-20
-5.4099e-19
2.77341e-14
-5.93305e-20
3.81509e-19
2.77343e-14
1.37527e-20
-3.70268e-19
-2.00672e-21
5.80526e-19
2.94653e-14
3.96875e-20
6.75766e-14
2.77993e-14
-1.44946e-19
2.10594e-15
2.89391e-14
9.65288e-20
-1.42904e-15
2.81385e-14
-2.05633e-19
1.00605e-15
2.87002e-14
-4.96165e-20
-7.05109e-16
2.83033e-14
-4.62338e-19
4.96274e-16
2.85865e-14
4.03645e-19
-3.53216e-16
2.83812e-14
-1.89561e-20
2.54793e-16
2.85298e-14
5.47332e-19
-1.84223e-16
2.84265e-14
8.8195e-19
1.32839e-16
2.84953e-14
-5.39409e-19
-8.97583e-17
2.84544e-14
1.73423e-18
5.75721e-17
2.8476e-14
-2.9568e-18
-3.45808e-17
2.84666e-14
2.45692e-18
1.7821e-17
2.84696e-14
-1.44206e-18
-7.37286e-18
2.84695e-14
4.12339e-19
1.9869e-18
2.8468e-14
-2.13464e-19
-2.98964e-20
2.84692e-14
-1.01014e-19
-1.25691e-18
2.84676e-14
-1.7012e-19
1.49699e-18
2.84691e-14
1.06711e-19
-1.62961e-18
2.84674e-14
-2.29844e-20
1.52887e-18
2.84689e-14
5.81875e-20
-1.55798e-18
2.84673e-14
-4.69285e-19
1.64598e-18
2.84688e-14
5.29005e-19
-1.61894e-18
2.84672e-14
-6.71127e-19
1.49765e-18
2.84688e-14
6.74818e-19
-1.45631e-18
2.84673e-14
-2.79231e-19
1.53895e-18
2.84688e-14
1.76893e-19
-1.36425e-18
2.84675e-14
-2.87865e-20
1.20969e-18
2.84686e-14
7.51556e-20
-1.08402e-18
2.84676e-14
-4.50812e-19
9.25874e-19
2.84684e-14
4.68348e-19
-7.87029e-19
2.84677e-14
-9.35897e-20
6.77953e-19
2.84685e-14
6.9396e-21
-6.77824e-19
2.84676e-14
-7.82835e-20
7.98232e-19
2.84684e-14
6.75314e-20
-9.06326e-19
2.84676e-14
4.14078e-20
9.04785e-19
2.84683e-14
6.38647e-20
-8.20533e-19
2.84677e-14
5.15711e-19
9.28237e-19
2.84683e-14
-6.48893e-19
-9.44766e-19
2.84676e-14
3.02223e-19
9.18964e-19
2.84683e-14
1.11994e-19
-9.77116e-19
2.84676e-14
7.95505e-19
1.10243e-18
2.84683e-14
-1.25499e-18
-1.06251e-18
2.84676e-14
6.76704e-20
8.38424e-19
2.84682e-14
-1.03387e-19
-7.98036e-19
2.84677e-14
2.71732e-20
6.47425e-19
2.84681e-14
-2.424e-21
-5.38238e-19
2.84678e-14
-6.38758e-20
3.75169e-19
2.8468e-14
3.31122e-20
-3.64807e-19
-3.08209e-20
5.68725e-19
2.94653e-14
-1.19908e-14
6.75766e-14
2.77993e-14
-4.40061e-16
2.10593e-15
2.89391e-14
2.89454e-16
-1.42904e-15
2.81385e-14
-2.05633e-16
1.00605e-15
2.87002e-14
1.43322e-16
-7.05133e-16
2.83033e-14
-1.00479e-16
4.96296e-16
2.85865e-14
7.10899e-17
-3.53225e-16
2.83812e-14
-5.10191e-17
2.54822e-16
2.85298e-14
3.79741e-17
-1.8419e-16
2.84265e-14
-2.78234e-17
1.32821e-16
2.84953e-14
2.01489e-17
-8.97175e-17
2.84544e-14
-1.30536e-17
5.75096e-17
2.8476e-14
6.89264e-18
-3.4643e-17
2.84666e-14
-3.21644e-18
1.78829e-17
2.84696e-14
1.70551e-18
-7.35052e-18
2.84695e-14
-9.26241e-19
1.98165e-18
2.8468e-14
4.21811e-19
-1.87014e-20
2.84692e-14
-1.86189e-19
-1.26378e-18
2.84676e-14
-1.93318e-19
1.49787e-18
2.84691e-14
1.92108e-19
-1.62946e-18
2.84674e-14
-9.34249e-20
1.53531e-18
2.84689e-14
1.4321e-19
-1.55793e-18
2.84673e-14
-5.44165e-19
1.6334e-18
2.84688e-14
6.0949e-19
-1.60648e-18
2.84672e-14
-7.62809e-19
1.48604e-18
2.84688e-14
7.71511e-19
-1.44411e-18
2.84673e-14
-4.13053e-19
1.5323e-18
2.84688e-14
2.51067e-19
-1.36344e-18
2.84675e-14
-1.04258e-19
1.21315e-18
2.84686e-14
1.50095e-19
-1.08365e-18
2.84676e-14
-4.51358e-19
9.0953e-19
2.84684e-14
4.44192e-19
-7.68354e-19
2.84677e-14
-9.35338e-20
6.75959e-19
2.84685e-14
-7.27136e-21
-6.80517e-19
2.84676e-14
-5.19918e-20
7.99543e-19
2.84684e-14
9.56845e-20
-9.03035e-19
2.84676e-14
3.83423e-21
9.10668e-19
2.84683e-14
1.03698e-19
-8.16357e-19
2.84676e-14
4.30461e-19
9.91441e-19
2.84683e-14
-5.17094e-19
-1.01136e-18
2.84676e-14
2.02538e-19
9.43561e-19
2.84683e-14
1.93667e-19
-9.69623e-19
2.84676e-14
6.21062e-19
1.18188e-18
2.84683e-14
-1.03534e-18
-1.1701e-18
2.84676e-14
-2.27541e-20
8.41557e-19
2.84682e-14
-3.0931e-20
-8.02649e-19
2.84677e-14
-1.03124e-20
6.48126e-19
2.84681e-14
9.46235e-21
-5.38509e-19
2.84678e-14
-6.37921e-20
3.70744e-19
2.8468e-14
4.88721e-20
-3.62538e-19
-5.43887e-20
5.62404e-19
2.87518e-14
-2.34949e-14
6.78033e-14
2.70553e-14
-8.52059e-16
2.10857e-15
2.82133e-14
5.62358e-16
-1.43079e-15
2.73994e-14
-3.98912e-16
1.00717e-15
2.79703e-14
2.78274e-16
-7.05952e-16
2.7567e-14
-1.94677e-16
4.96927e-16
2.78547e-14
1.37689e-16
-3.53713e-16
2.76462e-14
-9.90684e-17
2.55212e-16
2.77972e-14
7.31466e-17
-1.84439e-16
2.7692e-14
-5.46897e-17
1.32917e-16
2.77622e-14
3.94526e-17
-8.97216e-17
2.77202e-14
-2.68327e-17
5.7414e-17
2.77425e-14
1.61143e-17
-3.46168e-17
2.77327e-14
-8.56222e-18
1.78759e-17
2.77359e-14
4.65702e-18
-7.27808e-18
2.77358e-14
-2.15985e-18
1.94324e-18
2.77344e-14
9.80942e-19
1.93067e-20
2.77355e-14
-2.49527e-19
-1.27675e-18
2.77339e-14
-2.24943e-19
1.51279e-18
2.77354e-14
2.82999e-19
-1.64148e-18
2.77337e-14
-1.83303e-19
1.55586e-18
2.77352e-14
2.33411e-19
-1.56508e-18
2.77336e-14
-6.01408e-19
1.62995e-18
2.77351e-14
6.64616e-19
-1.59939e-18
2.77335e-14
-8.21481e-19
1.48026e-18
2.77351e-14
8.3534e-19
-1.43937e-18
2.77337e-14
-5.29244e-19
1.53106e-18
2.77351e-14
3.31825e-19
-1.37818e-18
2.77338e-14
-1.91445e-19
1.22832e-18
2.77349e-14
2.25313e-19
-1.08908e-18
2.77339e-14
-4.38503e-19
9.02773e-19
2.77347e-14
4.05836e-19
-7.58451e-19
2.7734e-14
-9.72911e-20
6.78649e-19
2.77348e-14
-5.587e-21
-6.9184e-19
2.77339e-14
-4.23684e-20
8.1435e-19
2.77347e-14
1.26271e-19
-9.06137e-19
2.77339e-14
-4.32357e-20
9.2144e-19
2.77346e-14
1.43562e-19
-8.15563e-19
2.7734e-14
3.15342e-19
1.04686e-18
2.77346e-14
-3.57162e-19
-1.0659e-18
2.77339e-14
8.87485e-20
9.64087e-19
2.77346e-14
2.67914e-19
-9.64673e-19
2.77339e-14
4.11687e-19
1.25066e-18
2.77346e-14
-7.60637e-19
-1.26073e-18
2.77339e-14
-1.14117e-19
8.4464e-19
2.77345e-14
4.48717e-20
-8.06684e-19
2.7734e-14
-5.05237e-20
6.49881e-19
2.77344e-14
2.48807e-20
-5.40243e-19
2.77341e-14
-6.38835e-20
3.67955e-19
2.77343e-14
6.54977e-20
-3.62263e-19
-7.76528e-20
5.62575e-19
2.72704e-14
-3.38604e-14
6.81462e-14
2.55112e-14
-1.20123e-15
2.10846e-15
2.67072e-14
7.97355e-16
-1.43089e-15
2.58657e-14
-5.6461e-16
1.0072e-15
2.64559e-14
3.9418e-16
-7.06121e-16
2.60392e-14
-2.75857e-16
4.97301e-16
2.63364e-14
1.95201e-16
-3.54106e-16
2.61209e-14
-1.40594e-16
2.55581e-16
2.6277e-14
1.03366e-16
-1.84625e-16
2.61678e-14
-7.73925e-17
1.32755e-16
2.6241e-14
5.55831e-17
-8.94543e-17
2.61969e-14
-3.81917e-17
5.70268e-17
2.62206e-14
2.36931e-17
-3.43153e-17
2.621e-14
-1.29758e-17
1.76901e-17
2.62137e-14
7.05077e-18
-7.10784e-18
2.62133e-14
-3.14601e-18
1.87801e-18
2.6212e-14
1.38863e-18
7.0805e-20
2.62131e-14
-2.68782e-19
-1.29524e-18
2.62115e-14
-2.66264e-19
1.52245e-18
2.6213e-14
3.75666e-19
-1.64862e-18
2.62113e-14
-2.91461e-19
1.57274e-18
2.62128e-14
3.42807e-19
-1.58504e-18
2.62112e-14
-6.49099e-19
1.6331e-18
2.62127e-14
7.07922e-19
-1.60471e-18
2.62111e-14
-8.56142e-19
1.48616e-18
2.62127e-14
8.69856e-19
-1.44251e-18
2.62113e-14
-6.32157e-19
1.53934e-18
2.62127e-14
4.14104e-19
-1.38861e-18
2.62114e-14
-2.85367e-19
1.23941e-18
2.62125e-14
3.01859e-19
-1.09703e-18
2.62115e-14
-4.1673e-19
8.97091e-19
2.62123e-14
3.60883e-19
-7.51476e-19
2.62116e-14
-1.13948e-19
6.8678e-19
2.62124e-14
1.59508e-20
-7.02164e-19
2.62115e-14
-5.02588e-20
8.23606e-19
2.62123e-14
1.63028e-19
-9.11209e-19
2.62115e-14
-1.01453e-19
9.31598e-19
2.62122e-14
1.89287e-19
-8.19793e-19
2.62116e-14
1.79002e-19
1.08847e-18
2.62122e-14
-1.81332e-19
-1.10697e-18
2.62115e-14
-3.57577e-20
9.81439e-19
2.62122e-14
3.34711e-19
-9.61811e-19
2.62115e-14
1.88426e-19
1.29907e-18
2.62122e-14
-4.58447e-19
-1.32602e-18
2.62116e-14
-2.0532e-19
8.48852e-19
2.62121e-14
1.23456e-19
-8.1064e-19
2.62116e-14
-9.74442e-20
6.54191e-19
2.6212e-14
4.90921e-20
-5.43952e-19
2.62117e-14
-7.14255e-20
3.69722e-19
2.6212e-14
8.22792e-20
-3.59989e-19
-9.61568e-20
5.60607e-19
2.48976e-14
-4.19422e-14
6.82351e-14
2.30399e-14
-1.43316e-15
2.0897e-15
2.42974e-14
9.58865e-16
-1.41887e-15
2.34115e-14
-6.77643e-16
9.98886e-16
2.40326e-14
4.73671e-16
-7.00626e-16
2.35944e-14
-3.32066e-16
4.93867e-16
2.39068e-14
2.35212e-16
-3.51783e-16
2.36804e-14
-1.69467e-16
2.53842e-16
2.38446e-14
1.23988e-16
-1.83081e-16
2.37291e-14
-9.20531e-17
1.30943e-16
2.38069e-14
6.55711e-17
-8.79026e-17
2.37594e-14
-4.48321e-17
5.56307e-17
2.37854e-14
2.79809e-17
-3.32909e-17
2.37734e-14
-1.54543e-17
1.71078e-17
2.37779e-14
8.291e-18
-6.70448e-18
2.37772e-14
-3.62489e-18
1.73219e-18
2.3776e-14
1.50404e-18
1.77804e-19
2.37771e-14
-1.90304e-19
-1.34077e-18
2.37755e-14
-3.39003e-19
1.54203e-18
2.3777e-14
4.83421e-19
-1.66656e-18
2.37754e-14
-4.31306e-19
1.60141e-18
2.37768e-14
4.98217e-19
-1.63417e-18
2.37753e-14
-7.09486e-19
1.65548e-18
2.37768e-14
7.66508e-19
-1.63643e-18
2.37751e-14
-8.89114e-19
1.51146e-18
2.37767e-14
8.91565e-19
-1.45938e-18
2.37753e-14
-7.3537e-19
1.56558e-18
2.37767e-14
5.03856e-19
-1.40389e-18
2.37754e-14
-3.92748e-19
1.25903e-18
2.37765e-14
3.92931e-19
-1.12167e-18
2.37756e-14
-4.06949e-19
9.0949e-19
2.37764e-14
3.35447e-19
-7.67286e-19
2.37757e-14
-1.67797e-19
7.2006e-19
2.37764e-14
7.73134e-20
-7.3046e-19
2.37756e-14
-9.21649e-20
8.42961e-19
2.37764e-14
2.22039e-19
-9.3126e-19
2.37756e-14
-1.81194e-19
9.50648e-19
2.37763e-14
2.5394e-19
-8.40332e-19
2.37756e-14
2.85876e-20
1.12082e-18
2.37763e-14
-3.21666e-21
-1.13809e-18
2.37756e-14
-1.67158e-19
9.99925e-19
2.37763e-14
3.93758e-19
-9.63928e-19
2.37756e-14
-1.99724e-20
1.32186e-18
2.37763e-14
-1.68065e-19
-1.35831e-18
2.37756e-14
-2.92757e-19
8.55658e-19
2.37762e-14
2.04493e-19
-8.17349e-19
2.37757e-14
-1.57251e-19
6.66454e-19
2.37761e-14
9.16673e-20
-5.5667e-19
2.37758e-14
-9.86691e-20
3.84877e-19
2.3776e-14
1.02706e-19
-3.64037e-19
-1.04043e-19
5.61082e-19
2.13978e-14
-4.53979e-14
6.7109e-14
1.93988e-14
-1.44588e-15
2.01176e-15
2.07483e-14
9.76727e-16
-1.36719e-15
1.97967e-14
-6.88772e-16
9.62678e-16
2.04637e-14
4.82199e-16
-6.75546e-16
1.99936e-14
-3.38666e-16
4.76222e-16
2.03283e-14
2.40026e-16
-3.38996e-16
2.00862e-14
-1.72485e-16
2.43855e-16
2.02618e-14
1.25164e-16
-1.75151e-16
2.01374e-14
-9.12341e-17
1.24272e-16
2.02218e-14
6.40386e-17
-8.29618e-17
2.01693e-14
-4.29499e-17
5.20308e-17
2.01989e-14
2.64215e-17
-3.09159e-17
2.01846e-14
-1.44887e-17
1.58729e-17
2.01905e-14
7.52346e-18
-5.99572e-18
2.0189e-14
-3.13501e-18
1.42867e-18
2.01883e-14
1.06441e-18
3.96082e-19
2.01892e-14
4.37659e-20
-1.39595e-18
2.01877e-14
-5.1907e-19
1.60806e-18
2.01892e-14
6.61856e-19
-1.73125e-18
2.01876e-14
-6.62231e-19
1.68385e-18
2.0189e-14
6.9366e-19
-1.68313e-18
2.01875e-14
-8.19321e-19
1.70585e-18
2.0189e-14
8.54284e-19
-1.67843e-18
2.01874e-14
-9.35004e-19
1.5406e-18
2.0189e-14
9.25747e-19
-1.48927e-18
2.01875e-14
-8.21167e-19
1.5766e-18
2.01889e-14
6.5814e-19
-1.47023e-18
2.01877e-14
-5.58435e-19
1.32396e-18
2.01887e-14
5.11428e-19
-1.16411e-18
2.01878e-14
-4.7235e-19
9.81356e-19
2.01886e-14
3.94615e-19
-8.45083e-19
2.01879e-14
-2.8699e-19
7.87479e-19
2.01886e-14
2.36504e-19
-8.1741e-19
2.01878e-14
-2.50363e-19
9.35684e-19
2.01886e-14
3.31774e-19
-9.76884e-19
2.01878e-14
-3.09825e-19
9.93763e-19
2.01885e-14
3.46794e-19
-8.75472e-19
2.01879e-14
-1.51159e-19
1.16036e-18
2.01885e-14
1.68701e-19
-1.15676e-18
2.01878e-14
-2.92766e-19
1.00974e-18
2.01885e-14
4.36119e-19
-9.60546e-19
2.01878e-14
-1.98223e-19
1.32188e-18
2.01885e-14
7.88243e-20
-1.35292e-18
2.01878e-14
-3.58657e-19
8.50676e-19
2.01884e-14
2.80284e-19
-8.18364e-19
2.01879e-14
-2.28856e-19
6.78471e-19
2.01883e-14
1.63448e-19
-5.80077e-19
2.0188e-14
-1.50967e-19
4.08873e-19
2.01883e-14
1.47185e-19
-3.95474e-19
-1.55115e-19
5.8148e-19
1.63001e-14
-3.84114e-14
6.17644e-14
1.4103e-14
-1.01542e-15
1.76669e-15
1.55892e-14
6.92643e-16
-1.20202e-15
1.45416e-14
-4.87314e-16
8.46239e-16
1.52758e-14
3.4173e-16
-5.93864e-16
1.47588e-14
-2.40704e-16
4.18588e-16
1.51263e-14
1.70881e-16
-2.97805e-16
1.48614e-14
-1.22757e-16
2.13893e-16
1.50531e-14
8.85581e-17
-1.53506e-16
1.49166e-14
-6.2599e-17
1.08619e-16
1.50101e-14
4.29742e-17
-7.25602e-17
1.49504e-14
-2.74321e-17
4.54843e-17
1.49853e-14
1.61125e-17
-2.72528e-17
1.49674e-14
-8.47119e-18
1.42114e-17
1.49755e-14
3.8685e-18
-5.28668e-18
1.49729e-14
-1.36105e-18
1.31885e-18
1.49728e-14
3.25814e-20
3.43539e-19
1.49736e-14
3.01463e-19
-1.22596e-18
1.49722e-14
-6.40238e-19
1.44084e-18
1.49736e-14
6.94623e-19
-1.55867e-18
1.4972e-14
-7.44707e-19
1.5054e-18
1.49735e-14
6.95671e-19
-1.50443e-18
1.4972e-14
-7.93304e-19
1.55865e-18
1.49735e-14
8.05391e-19
-1.55049e-18
1.49719e-14
-8.62783e-19
1.43587e-18
1.49735e-14
8.53956e-19
-1.40319e-18
1.4972e-14
-7.12689e-19
1.41178e-18
1.49734e-14
6.86878e-19
-1.3353e-18
1.49721e-14
-5.99885e-19
1.20065e-18
1.49732e-14
5.01035e-19
-1.05439e-18
1.49723e-14
-4.85017e-19
9.23133e-19
1.4973e-14
4.25422e-19
-8.12507e-19
1.49723e-14
-3.3243e-19
7.26226e-19
1.49731e-14
3.45053e-19
-7.58255e-19
1.49723e-14
-3.86083e-19
8.74251e-19
1.49731e-14
3.77774e-19
-8.99069e-19
1.49723e-14
-3.77917e-19
9.15145e-19
1.4973e-14
3.59333e-19
-8.0286e-19
1.49724e-14
-3.76652e-19
1.19716e-18
1.4973e-14
3.78548e-19
-1.20229e-18
1.49723e-14
-3.63339e-19
9.63686e-19
1.49731e-14
3.91299e-19
-8.79204e-19
1.49723e-14
-3.83292e-19
1.33086e-18
1.4973e-14
3.50773e-19
-1.38721e-18
1.49723e-14
-3.35557e-19
7.71849e-19
1.49729e-14
2.91399e-19
-7.49674e-19
1.49724e-14
-2.42864e-19
6.11305e-19
1.49728e-14
1.92986e-19
-5.25088e-19
1.49725e-14
-1.55916e-19
3.62929e-19
1.49728e-14
1.42272e-19
-3.61664e-19
-1.44057e-19
5.30106e-19
8.2282e-15
3.84114e-14
6.19739e-15
1.0154e-15
7.58272e-15
-6.92663e-16
6.60816e-15
4.87249e-16
7.29151e-15
-3.41634e-16
6.81031e-15
2.40409e-16
7.152e-15
-1.70714e-16
6.90656e-15
1.22441e-16
7.08339e-15
-8.79668e-17
6.95774e-15
6.31892e-17
7.04376e-15
-4.30714e-17
6.98844e-15
2.8143e-17
7.02122e-15
-1.72034e-17
7.00395e-15
9.27915e-18
7.01203e-15
-4.36975e-18
7.00919e-15
1.56914e-18
7.00943e-15
-3.54972e-19
7.01008e-15
-3.96404e-19
7.00886e-15
5.71865e-19
7.01021e-15
-6.69199e-19
7.00876e-15
6.67432e-19
7.01015e-15
-6.97371e-19
7.00872e-15
6.46254e-19
7.01016e-15
-6.42775e-19
7.00866e-15
6.06612e-19
7.01012e-15
-5.83577e-19
7.00874e-15
6.77652e-19
7.01004e-15
-5.91688e-19
7.00887e-15
5.47527e-19
7.00987e-15
-5.02347e-19
7.00902e-15
3.70448e-19
7.00975e-15
-3.09287e-19
7.00908e-15
3.37751e-19
7.00976e-15
-3.22778e-19
7.00903e-15
3.35087e-19
7.00977e-15
-3.81622e-19
7.00903e-15
3.73311e-19
7.00974e-15
-3.52879e-19
7.00909e-15
3.34423e-19
7.00975e-15
-3.45189e-19
7.00906e-15
3.61559e-19
7.00977e-15
-3.58891e-19
7.00906e-15
4.10096e-19
7.00975e-15
-4.18986e-19
7.0091e-15
3.3398e-19
7.00966e-15
-2.9824e-19
7.00919e-15
2.50104e-19
7.00956e-15
-2.0283e-19
7.00926e-15
1.61122e-19
7.00954e-15
-1.59107e-19
1.82884e-19
1.63001e-14
6.17643e-14
4.53979e-14
1.41031e-14
1.7667e-15
1.44588e-15
1.55892e-14
-1.20211e-15
-9.76612e-16
1.45417e-14
8.46198e-16
6.88742e-16
1.52758e-14
-5.93727e-16
-4.82125e-16
1.47588e-14
4.18458e-16
3.38211e-16
1.51263e-14
-2.97921e-16
-2.39506e-16
1.48613e-14
2.14165e-16
1.71731e-16
1.50532e-14
-1.53625e-16
-1.24603e-16
1.49165e-14
1.08768e-16
9.19332e-17
1.50101e-14
-7.25196e-17
-6.47294e-17
1.49504e-14
4.56412e-17
4.46269e-17
1.49852e-14
-2.62771e-17
-2.90539e-17
1.49675e-14
1.31079e-17
1.68601e-17
1.49755e-14
-5.54292e-18
-8.57173e-18
1.49729e-14
1.25882e-18
3.61491e-18
1.49728e-14
3.62587e-19
-1.46259e-18
1.49736e-14
-1.18072e-18
-1.29981e-19
1.49722e-14
1.46839e-18
3.5418e-19
1.49736e-14
-1.56045e-18
-6.01031e-19
1.4972e-14
1.5115e-18
5.67929e-19
1.49735e-14
-1.49721e-18
-6.71495e-19
1.4972e-14
1.68439e-18
4.95786e-19
1.49735e-14
-1.65623e-18
-4.98422e-19
1.49719e-14
1.60175e-18
3.83816e-19
1.49735e-14
-1.61781e-18
-3.22194e-19
1.4972e-14
1.45368e-18
6.6298e-19
1.49734e-14
-1.38797e-18
-4.82551e-19
1.49721e-14
1.20095e-18
4.93624e-19
1.49732e-14
-1.06464e-18
-4.61245e-19
1.49723e-14
1.07703e-18
1.83475e-19
1.4973e-14
-9.87475e-19
-9.18533e-20
1.49724e-14
7.48706e-19
2.28703e-19
1.49731e-14
-7.62485e-19
-2.0269e-19
1.49723e-14
8.93774e-19
1.69978e-19
1.49731e-14
-9.2111e-19
-3.03197e-19
1.49723e-14
8.88123e-19
3.09289e-19
1.4973e-14
-8.38027e-19
-3.162e-19
1.49724e-14
7.58461e-19
2.61298e-19
1.4973e-14
-7.16835e-19
-3.45375e-19
1.49723e-14
7.89826e-19
3.99842e-19
1.49731e-14
-9.61532e-19
-3.71923e-19
1.49723e-14
7.19941e-19
5.02824e-19
1.4973e-14
-5.69511e-19
-5.65839e-19
1.49723e-14
7.52104e-19
3.92172e-19
1.49729e-14
-7.0144e-19
-3.49666e-19
1.49724e-14
5.9478e-19
2.63307e-19
1.49728e-14
-5.11947e-19
-1.90495e-19
1.49725e-14
3.90634e-19
1.3862e-19
1.49728e-14
-3.65303e-19
-1.63826e-19
5.20968e-19
1.96804e-19
3.68648e-14
8.58575e-14
8.58575e-14
3.47335e-14
2.83244e-15
2.8324e-15
3.61423e-14
-1.90651e-15
-1.90629e-15
3.51453e-14
1.34486e-15
1.34474e-15
3.58401e-14
-9.41131e-16
-9.412e-16
3.53567e-14
6.59165e-16
6.59176e-16
3.56949e-14
-4.66312e-16
-4.65695e-16
3.54532e-14
3.33205e-16
3.32521e-16
3.56317e-14
-2.40476e-16
-2.4042e-16
3.54952e-14
1.78428e-16
1.78252e-16
3.56009e-14
-1.25932e-16
-1.26168e-16
3.55215e-14
8.86669e-17
8.85621e-17
3.55764e-14
-5.71034e-17
-6.0016e-17
3.55415e-14
3.31363e-17
3.6409e-17
3.55637e-14
-1.90182e-17
-1.87565e-17
3.55519e-14
8.09527e-18
8.23626e-18
3.55571e-14
-3.51397e-18
-3.51901e-18
3.55544e-14
-5.23182e-20
-8.7889e-20
3.55555e-14
6.79545e-19
7.22183e-19
3.55547e-14
-1.18853e-18
-1.2305e-18
3.55551e-14
1.06462e-18
1.08372e-18
3.55546e-14
-1.29164e-18
-1.31125e-18
3.55553e-14
1.2782e-18
1.27542e-18
3.55547e-14
-1.24933e-18
-1.32223e-18
3.5555e-14
1.0936e-18
9.56935e-19
3.55548e-14
-1.1507e-18
-9.56567e-19
3.55548e-14
1.35415e-18
1.32566e-18
3.55546e-14
-1.05526e-18
-1.02349e-18
3.55547e-14
9.55517e-19
9.65463e-19
3.55546e-14
-9.60028e-19
-9.47547e-19
3.55551e-14
8.17031e-19
7.06097e-19
3.55545e-14
-7.13489e-19
-6.11536e-19
3.55548e-14
5.70584e-19
5.33304e-19
3.55544e-14
-4.57273e-19
-4.49348e-19
3.5555e-14
4.62211e-19
4.97754e-19
3.55545e-14
-7.25253e-19
-7.51554e-19
3.5555e-14
6.48432e-19
7.68703e-19
3.55547e-14
-7.88305e-19
-8.30925e-19
3.55556e-14
-1.43593e-19
1.03619e-18
3.5555e-14
1.05129e-19
-1.1781e-18
3.55552e-14
5.88817e-19
1.11368e-18
3.55549e-14
-1.05426e-18
-1.14342e-18
3.55556e-14
-1.2162e-19
1.36154e-18
3.5555e-14
4.16508e-19
-1.36447e-18
3.5555e-14
8.26638e-19
1.01452e-18
3.55548e-14
-6.72778e-19
-9.1168e-19
3.5555e-14
5.30342e-19
6.82506e-19
3.55546e-14
-4.16809e-19
-5.40783e-19
3.55548e-14
3.67222e-19
3.86991e-19
3.55547e-14
-4.1844e-19
-4.50112e-19
4.61267e-19
2.95133e-19
5.1067e-14
8.64793e-14
1.00471e-13
4.9484e-14
3.0124e-15
3.41497e-15
5.05114e-14
-2.00786e-15
-2.29305e-15
4.97823e-14
1.41934e-15
1.61743e-15
5.02896e-14
-9.92166e-16
-1.13172e-15
4.99369e-14
6.93566e-16
7.9249e-16