/*--------------------------------*- C++ -*----------------------------------*\
  =========                 |
  \\      /  F ield         | OpenFOAM: The Open Source CFD Toolbox
   \\    /   O peration     | Website:  https://openfoam.org
    \\  /    A nd           | Version:  13
     \\/     M anipulation  |
\*---------------------------------------------------------------------------*/
FoamFile
{
    format      ascii;
    class       volVectorField;
    location    "29";
    object      U;
}
// * * * * * * * * * * * * * * * * * * * * * * * * * * * * * * * * * * * * * //

dimensions      [0 1 -1 0 0 0 0];

internalField   nonuniform List<vector> 
9996
(
(0.000118157 7.82902e-06 7.82901e-06)
(0.000152237 2.20718e-07 2.20724e-07)
(0.000127271 -1.52436e-07 -1.52441e-07)
(0.000144481 1.06903e-07 1.06917e-07)
(0.000132428 -7.50027e-08 -7.5003e-08)
(0.00014085 5.2755e-08 5.27574e-08)
(0.00013497 -3.73704e-08 -3.73663e-08)
(0.000139094 2.66444e-08 2.66244e-08)
(0.000136146 -1.90259e-08 -1.9036e-08)
(0.000138304 1.35404e-08 1.35262e-08)
(0.000136703 -9.27094e-09 -9.28351e-09)
(0.000137878 6.10821e-09 6.11298e-09)
(0.000137054 -3.79413e-09 -3.76857e-09)
(0.000137596 2.13052e-09 2.11512e-09)
(0.000137274 -1.02755e-09 -1.02167e-09)
(0.00013745 3.92266e-10 3.95085e-10)
(0.000137365 -9.32682e-11 -9.14262e-11)
(0.000137398 -7.371e-11 -7.18756e-11)
(0.000137383 1.21026e-10 1.20593e-10)
(0.000137387 -1.4734e-10 -1.49297e-10)
(0.000137387 1.52706e-10 1.53926e-10)
(0.000137385 -1.54443e-10 -1.55458e-10)
(0.000137386 1.43526e-10 1.45025e-10)
(0.000137384 -1.41663e-10 -1.42221e-10)
(0.000137385 1.34879e-10 1.34534e-10)
(0.000137383 -1.31947e-10 -1.28737e-10)
(0.000137386 1.4152e-10 1.43203e-10)
(0.000137383 -1.33889e-10 -1.35361e-10)
(0.000137387 1.24584e-10 1.25944e-10)
(0.000137382 -1.09668e-10 -1.10274e-10)
(0.000137387 8.24258e-11 8.70338e-11)
(0.000137383 -7.01716e-11 -7.38135e-11)
(0.000137385 7.68067e-11 7.74116e-11)
(0.000137384 -7.74714e-11 -7.89381e-11)
(0.000137385 7.84711e-11 8.02135e-11)
(0.000137383 -8.19072e-11 -8.17457e-11)
(0.000137386 8.46131e-11 8.14554e-11)
(0.000137383 -7.72388e-11 -7.76238e-11)
(0.000137386 1.0212e-10 7.33782e-11)
(0.000137383 -1.07046e-10 -7.35044e-11)
(0.000137385 9.14829e-11 7.80419e-11)
(0.000137384 -7.68433e-11 -7.75276e-11)
(0.000137385 1.17041e-10 8.35969e-11)
(0.000137384 -1.31846e-10 -8.38074e-11)
(0.000137386 7.44109e-11 7.10297e-11)
(0.000137383 -6.77159e-11 -6.34121e-11)
(0.000137386 5.52118e-11 5.37084e-11)
(0.000137383 -4.58212e-11 -4.51393e-11)
(0.000137385 3.59784e-11 3.73738e-11)
(0.000137384 -3.79503e-11 -3.94345e-11)
(0.000137384 4.09943e-11 4.44878e-11)
(0.000251736 1.59836e-05 1.27203e-05)
(0.000324765 4.61696e-07 3.99949e-07)
(0.000271905 -3.12948e-07 -2.76063e-07)
(0.000308599 2.20498e-07 1.93962e-07)
(0.000282876 -1.54513e-07 -1.36131e-07)
(0.000300886 1.08544e-07 9.52614e-08)
(0.00028827 -7.69777e-08 -6.70122e-08)
(0.000297148 5.52404e-08 4.67712e-08)
(0.000290801 -3.97854e-08 -3.25592e-08)
(0.000295424 2.89286e-08 2.27033e-08)
(0.000292036 -1.99668e-08 -1.51165e-08)
(0.000294483 1.33867e-08 9.88308e-09)
(0.000292796 -8.41612e-09 -6.0546e-09)
(0.000293887 4.66789e-09 3.3971e-09)
(0.000293247 -2.3349e-09 -1.58319e-09)
(0.000293592 8.7895e-10 4.69883e-10)
(0.000293427 -2.73668e-10 -7.50341e-13)
(0.00029349 -1.2159e-10 -2.95002e-10)
(0.000293463 2.02885e-10 3.8237e-10)
(0.000293469 -2.57351e-10 -4.24689e-10)
(0.00029347 2.57102e-10 4.19424e-10)
(0.000293464 -2.70338e-10 -3.89221e-10)
(0.000293468 2.48044e-10 3.64922e-10)
(0.000293464 -2.4824e-10 -3.28113e-10)
(0.000293467 2.34355e-10 3.03237e-10)
(0.000293461 -2.30244e-10 -2.94438e-10)
(0.000293468 2.63309e-10 3.24543e-10)
(0.000293461 -2.24939e-10 -3.6303e-10)
(0.00029347 2.12543e-10 3.38745e-10)
(0.00029346 -1.91495e-10 -2.99476e-10)
(0.000293469 1.23904e-10 2.71579e-10)
(0.000293461 -9.84316e-11 -2.4402e-10)
(0.000293467 1.16227e-10 2.51859e-10)
(0.000293464 -1.12883e-10 -2.61348e-10)
(0.000293466 1.11748e-10 2.71351e-10)
(0.000293461 -1.40845e-10 -2.38648e-10)
(0.000293468 1.46119e-10 2.3106e-10)
(0.00029346 -1.36766e-10 -2.05646e-10)
(0.000293468 1.74369e-10 2.22059e-10)
(0.000293462 -1.98861e-10 -1.96576e-10)
(0.000293467 1.75114e-10 1.86714e-10)
(0.000293463 -1.51993e-10 -1.74142e-10)
(0.000293467 2.26477e-10 2.00883e-10)
(0.000293463 -2.6058e-10 -2.0695e-10)
(0.000293467 1.49189e-10 1.4974e-10)
(0.000293462 -1.34947e-10 -1.41183e-10)
(0.000293466 1.04144e-10 1.2577e-10)
(0.000293462 -8.02238e-11 -1.22054e-10)
(0.000293465 5.82801e-11 1.04248e-10)
(0.000293464 -5.99184e-11 -1.31639e-10)
(0.000293464 6.95637e-11 1.45475e-10)
(0.000338842 1.64363e-05 1.29573e-05)
(0.00043757 5.40996e-07 4.38233e-07)
(0.00036666 -3.63636e-07 -3.02656e-07)
(0.000416073 2.56661e-07 2.12876e-07)
(0.00038141 -1.79605e-07 -1.49477e-07)
(0.000405712 1.25848e-07 1.04629e-07)
(0.00038865 -8.91669e-08 -7.35314e-08)
(0.000400688 6.4197e-08 5.11776e-08)
(0.000392073 -4.66252e-08 -3.54471e-08)
(0.000398332 3.49203e-08 2.47056e-08)
(0.000393786 -2.4647e-08 -1.64338e-08)
(0.000397031 1.72657e-08 1.08402e-08)
(0.000394827 -1.14349e-08 -6.71336e-09)
(0.000396229 6.61287e-09 3.8175e-09)
(0.000395417 -3.50683e-09 -1.83712e-09)
(0.000395847 1.44031e-09 5.97656e-10)
(0.000395645 -6.33904e-10 -6.50411e-11)
(0.000395719 -1.59684e-11 -3.1688e-10)
(0.000395689 8.28996e-11 3.75623e-10)
(0.000395694 -1.73664e-10 -4.40447e-10)
(0.000395696 1.67364e-10 4.34446e-10)
(0.000395687 -2.02075e-10 -4.30129e-10)
(0.000395694 1.2011e-10 3.72209e-10)
(0.000395686 -1.24011e-10 -3.45673e-10)
(0.000395693 9.43498e-11 3.12148e-10)
(0.000395684 -8.85825e-11 -2.9126e-10)
(0.000395694 2.00786e-10 3.52695e-10)
(0.000395685 -1.34209e-10 -3.61079e-10)
(0.000395696 1.49839e-10 3.51736e-10)
(0.000395684 -1.38483e-10 -3.23229e-10)
(0.000395694 -1.97983e-12 2.69984e-10)
(0.000395684 3.32288e-11 -2.41579e-10)
(0.000395692 4.70321e-11 2.76125e-10)
(0.000395687 -4.13942e-11 -2.76929e-10)
(0.000395692 1.85393e-11 2.66005e-10)
(0.000395683 -8.13832e-11 -2.50399e-10)
(0.000395695 1.00206e-10 2.39364e-10)
(0.000395682 -8.99878e-11 -2.2344e-10)
(0.000395694 1.89448e-10 2.26764e-10)
(0.000395683 -2.53772e-10 -2.10049e-10)
(0.000395692 1.89847e-10 1.99728e-10)
(0.000395685 -1.15843e-10 -1.75962e-10)
(0.000395691 3.18162e-10 2.11138e-10)
(0.000395685 -4.18959e-10 -2.27017e-10)
(0.000395691 1.46711e-10 1.59669e-10)
(0.000395686 -1.33292e-10 -1.50335e-10)
(0.00039569 8.66136e-11 1.35795e-10)
(0.000395685 -5.34538e-11 -1.30505e-10)
(0.000395689 2.64963e-11 1.15658e-10)
(0.000395688 -3.75469e-11 -1.41395e-10)
(0.000395687 4.91956e-11 1.47547e-10)
(0.000398575 1.38989e-05 1.26704e-05)
(0.000515081 4.86599e-07 4.42791e-07)
(0.000431857 -3.24131e-07 -3.05835e-07)
(0.000489996 2.29228e-07 2.15221e-07)
(0.00044919 -1.60195e-07 -1.51182e-07)
(0.000477832 1.11893e-07 1.05961e-07)
(0.000457685 -7.91753e-08 -7.45527e-08)
(0.000471928 5.71039e-08 5.19994e-08)
(0.000461731 -4.16852e-08 -3.60933e-08)
(0.00046912 3.19014e-08 2.51855e-08)
(0.000463793 -2.28104e-08 -1.68098e-08)
(0.00046756 1.64225e-08 1.11067e-08)
(0.00046503 -1.12203e-08 -6.88678e-09)
(0.000466619 6.6167e-09 3.9335e-09)
(0.000465708 -3.60454e-09 -1.9099e-09)
(0.000466183 1.48737e-09 6.58966e-10)
(0.000465963 -7.0529e-10 -1.06061e-10)
(0.00046604 3.55865e-11 -2.94987e-10)
(0.000466011 1.7275e-11 3.41733e-10)
(0.000466013 -1.04453e-10 -4.16437e-10)
(0.000466018 9.81258e-11 4.13899e-10)
(0.000466007 -1.18936e-10 -4.2159e-10)
(0.000466015 1.47764e-11 3.48815e-10)
(0.000466005 -9.74922e-12 -3.28535e-10)
(0.000466014 -2.34188e-11 2.90592e-10)
(0.000466003 2.23216e-11 -2.6518e-10)
(0.000466015 1.15521e-10 3.44225e-10)
(0.000466005 -6.82283e-11 -3.38184e-10)
(0.000466017 9.7354e-11 3.35248e-10)
(0.000466004 -8.59323e-11 -3.0968e-10)
(0.000466015 -7.45623e-11 2.43752e-10)
(0.000466004 1.0507e-10 -2.15208e-10)
(0.000466014 1.58387e-13 2.61733e-10)
(0.000466007 -1.80368e-12 -2.60985e-10)
(0.000466014 -2.35486e-11 2.42802e-10)
(0.000466002 -3.75651e-11 -2.35309e-10)
(0.000466017 6.56631e-11 2.24416e-10)
(0.000466 -4.7215e-11 -2.1409e-10)
(0.000466016 1.97194e-10 1.98444e-10)
(0.000466001 -2.72483e-10 -1.86473e-10)
(0.000466014 1.79057e-10 1.88543e-10)
(0.000466004 -7.75243e-11 -1.65719e-10)
(0.000466012 3.51045e-10 1.92847e-10)
(0.000466005 -4.87625e-10 -2.07879e-10)
(0.000466011 1.22524e-10 1.55247e-10)
(0.000466006 -1.12928e-10 -1.45379e-10)
(0.00046601 6.06415e-11 1.32622e-10)
(0.000466006 -2.83263e-11 -1.25699e-10)
(0.000466009 -8.92456e-13 1.12461e-10)
(0.000466008 -2.0764e-11 -1.33285e-10)
(0.000466007 3.41296e-11 1.39769e-10)
(0.000439037 1.04038e-05 1.24209e-05)
(0.000567665 3.7478e-07 4.42199e-07)
(0.000476131 -2.47854e-07 -3.05431e-07)
(0.000540183 1.75603e-07 2.14925e-07)
(0.000495208 -1.22632e-07 -1.50942e-07)
(0.000526804 8.54313e-08 1.0578e-07)
(0.000504547 -6.03661e-08 -7.44379e-08)
(0.000520304 4.35635e-08 5.19429e-08)
(0.000509021 -3.18065e-08 -3.61165e-08)
(0.00051718 2.47002e-08 2.52482e-08)
(0.000511331 -1.77495e-08 -1.6906e-08)
(0.000515438 1.30443e-08 1.11904e-08)
(0.000512704 -9.17464e-09 -6.92765e-09)
(0.000514404 5.50323e-09 3.95926e-09)
(0.000513437 -3.04017e-09 -1.92706e-09)
(0.000513936 1.23438e-09 6.68847e-10)
(0.000513707 -5.96847e-10 -1.12662e-10)
(0.000513785 3.06367e-11 -2.86282e-10)
(0.000513757 -1.35526e-11 3.41169e-10)
(0.000513757 -5.84463e-11 -4.15059e-10)
(0.000513764 6.05564e-11 4.1193e-10)
(0.00051375 -6.7199e-11 -4.14525e-10)
(0.000513761 -5.50325e-11 3.39911e-10)
(0.000513749 6.74784e-11 -3.16159e-10)
(0.00051376 -1.04233e-10 2.75329e-10)
(0.000513747 1.01015e-10 -2.52209e-10)
(0.000513761 4.58805e-11 3.3862e-10)
(0.00051375 -2.39624e-11 -3.38921e-10)
(0.000513763 6.35891e-11 3.34396e-10)
(0.000513749 -5.06816e-11 -3.06039e-10)
(0.00051376 -1.13709e-10 2.40444e-10)
(0.000513749 1.39489e-10 -2.11311e-10)
(0.000513759 -1.77664e-11 2.57564e-10)
(0.000513752 7.16212e-12 -2.58734e-10)
(0.00051376 -3.41441e-11 2.43955e-10)
(0.000513746 -1.44251e-11 -2.32228e-10)
(0.000513763 4.89521e-11 2.19661e-10)
(0.000513743 -2.19568e-11 -2.08915e-10)
(0.000513762 2.11728e-10 1.71715e-10)
(0.000513745 -2.8606e-10 -1.56108e-10)
(0.00051376 1.68389e-10 1.75285e-10)
(0.000513747 -4.29181e-11 -1.6125e-10)
(0.000513758 3.63923e-10 1.67878e-10)
(0.000513749 -5.23967e-10 -1.74491e-10)
(0.000513755 9.73856e-11 1.49892e-10)
(0.000513751 -9.35392e-11 -1.39738e-10)
(0.000513754 4.31473e-11 1.29152e-10)
(0.00051375 -1.56345e-11 -1.22985e-10)
(0.000513754 -1.38835e-11 1.10721e-10)
(0.000513752 -1.0374e-11 -1.32859e-10)
(0.000513751 2.10698e-11 1.42663e-10)
(0.000464284 6.41707e-06 1.22434e-05)
(0.00060051 2.34721e-07 4.41061e-07)
(0.000503805 -1.54508e-07 -3.04684e-07)
(0.000571546 1.09614e-07 2.14394e-07)
(0.000523965 -7.65569e-08 -1.50525e-07)
(0.000557413 5.32272e-08 1.05443e-07)
(0.00053383 -3.75803e-08 -7.41748e-08)
(0.000550542 2.71721e-08 5.17361e-08)
(0.000538575 -1.97696e-08 -3.60005e-08)
(0.000547214 1.55978e-08 2.51877e-08)
(0.000541045 -1.12146e-08 -1.69123e-08)
(0.000545355 8.46526e-09 1.12059e-08)
(0.000542503 -6.23307e-09 -6.91748e-09)
(0.000544265 3.84228e-09 3.95531e-09)
(0.000543268 -2.14435e-09 -1.92638e-09)
(0.000543778 8.47848e-10 6.74687e-10)
(0.000543546 -4.13906e-10 -1.13654e-10)
(0.000543624 8.955e-12 -2.82925e-10)
(0.000543596 -4.07391e-11 3.41286e-10)
(0.000543596 -1.40293e-11 -4.15397e-10)
(0.000543604 2.88607e-11 4.1127e-10)
(0.000543588 -2.82311e-11 -4.11907e-10)
(0.000543601 -1.10724e-10 3.32696e-10)
(0.000543587 1.26301e-10 -3.08244e-10)
(0.0005436 -1.6867e-10 2.63615e-10)
(0.000543585 1.67542e-10 -2.4166e-10)
(0.0005436 -1.68552e-11 3.36795e-10)
(0.000543588 1.77993e-11 -3.38418e-10)
(0.000543602 3.09477e-11 3.3431e-10)
(0.000543588 -1.71873e-11 -3.05545e-10)
(0.000543599 -1.44057e-10 2.39392e-10)
(0.000543587 1.62745e-10 -2.1029e-10)
(0.000543599 -2.85495e-11 2.57352e-10)
(0.00054359 9.47733e-12 -2.58494e-10)
(0.0005436 -3.89698e-11 2.44612e-10)
(0.000543584 4.92652e-12 -2.31313e-10)
(0.000543603 3.40051e-11 2.15956e-10)
(0.000543581 -1.56219e-12 -2.06564e-10)
(0.000543602 2.13425e-10 1.43358e-10)
(0.000543582 -2.81953e-10 -1.24811e-10)
(0.000543599 1.5126e-10 1.61932e-10)
(0.000543585 -7.71198e-12 -1.57252e-10)
(0.000543597 3.52742e-10 1.4036e-10)
(0.000543587 -5.25221e-10 -1.37452e-10)
(0.000543594 7.01045e-11 1.45074e-10)
(0.000543589 -7.28685e-11 -1.34522e-10)
(0.000543593 2.93146e-11 1.26714e-10)
(0.000543589 -7.96248e-12 -1.21402e-10)
(0.000543593 -2.01917e-11 1.10992e-10)
(0.000543591 6.63604e-13 -1.33516e-10)
(0.00054359 5.46055e-12 1.46332e-10)
(0.000476438 2.16644e-06 1.21529e-05)
(0.000616334 7.97842e-08 4.4034e-07)
(0.000517142 -5.24001e-08 -3.04227e-07)
(0.000586661 3.7172e-08 2.14086e-07)
(0.000537823 -2.60097e-08 -1.5029e-07)
(0.000572166 1.79649e-08 1.05257e-07)
(0.00054794 -1.26648e-08 -7.4025e-08)
(0.000565115 9.23036e-09 5.16055e-08)
(0.000552818 -6.58843e-09 -3.59189e-08)
(0.000561688 5.51897e-09 2.51265e-08)
(0.000555367 -3.94707e-09 -1.69036e-08)
(0.000559771 3.30013e-09 1.11988e-08)
(0.000556865 -2.84289e-09 -6.8873e-09)
(0.000558655 1.90694e-09 3.93837e-09)
(0.000557645 -1.07985e-09 -1.92006e-09)
(0.00055816 3.89639e-10 6.82139e-10)
(0.000557926 -1.92839e-10 -1.14496e-10)
(0.000558004 -2.00207e-11 -2.79948e-10)
(0.000557977 -5.71407e-11 3.37514e-10)
(0.000557975 2.30248e-11 -4.13673e-10)
(0.000557984 3.22745e-12 4.09787e-10)
(0.000557968 5.69254e-12 -4.11413e-10)
(0.000557981 -1.53362e-10 3.25708e-10)
(0.000557967 1.72735e-10 -3.0288e-10)
(0.00055798 -2.21033e-10 2.53838e-10)
(0.000557965 2.21853e-10 -2.31819e-10)
(0.00055798 -7.46344e-11 3.36494e-10)
(0.000557969 5.05336e-11 -3.35395e-10)
(0.000557982 2.55429e-12 3.33203e-10)
(0.000557968 1.34963e-11 -3.05054e-10)
(0.000557979 -1.60719e-10 2.36852e-10)
(0.000557968 1.71406e-10 -2.08133e-10)
(0.000557979 -3.36771e-11 2.57395e-10)
(0.00055797 5.91028e-12 -2.57844e-10)
(0.000557981 -3.38475e-11 2.42639e-10)
(0.000557963 1.94807e-11 -2.29747e-10)
(0.000557984 2.08731e-11 2.11695e-10)
(0.000557961 1.60166e-11 -2.05109e-10)
(0.000557983 2.00954e-10 1.14316e-10)
(0.000557962 -2.57337e-10 -9.39675e-11)
(0.00055798 1.25678e-10 1.49179e-10)
(0.000557965 2.5765e-11 -1.53104e-10)
(0.000557977 3.17651e-10 1.12115e-10)
(0.000557968 -4.89748e-10 -9.99318e-11)
(0.000557974 3.99436e-11 1.4095e-10)
(0.00055797 -4.96429e-11 -1.29917e-10)
(0.000557973 1.61289e-11 1.25187e-10)
(0.000557969 -2.6678e-12 -1.20403e-10)
(0.000557973 -2.30582e-11 1.12173e-10)
(0.000557971 9.19233e-12 -1.33655e-10)
(0.00055797 -6.98061e-12 1.48873e-10)
(0.000476438 -2.16641e-06 1.21529e-05)
(0.000616334 -7.98892e-08 4.40338e-07)
(0.000517142 5.24714e-08 -3.04219e-07)
(0.000586661 -3.73202e-08 2.14083e-07)
(0.000537822 2.59737e-08 -1.50286e-07)
(0.000572167 -1.8294e-08 1.05268e-07)
(0.000547939 1.29547e-08 -7.40356e-08)
(0.000565116 -9.24452e-09 5.16065e-08)
(0.000552818 6.97696e-09 -3.59312e-08)
(0.000561687 -4.88747e-09 2.51173e-08)
(0.000555368 3.55865e-09 -1.69155e-08)
(0.00055977 -2.06116e-09 1.11937e-08)
(0.000556866 7.16686e-10 -6.85368e-09)
(0.000558654 -1.38277e-10 3.91557e-09)
(0.000557645 5.3554e-11 -1.91054e-09)
(0.00055816 -9.61279e-11 6.86726e-10)
(0.000557926 4.04821e-11 -1.13931e-10)
(0.000558003 -5.17893e-11 -2.76426e-10)
(0.000557977 -6.56327e-11 3.34256e-10)
(0.000557975 5.40824e-11 -4.12171e-10)
(0.000557984 -2.01664e-11 4.093e-10)
(0.000557968 3.67199e-11 -4.11501e-10)
(0.000557981 -1.84463e-10 3.20902e-10)
(0.000557967 2.07287e-10 -2.99318e-10)
(0.00055798 -2.60521e-10 2.45844e-10)
(0.000557965 2.62879e-10 -2.23971e-10)
(0.00055798 -1.2616e-10 3.36744e-10)
(0.000557969 7.70688e-11 -3.33917e-10)
(0.000557982 -2.35266e-11 3.32743e-10)
(0.000557968 4.11578e-11 -3.04374e-10)
(0.000557979 -1.64786e-10 2.34902e-10)
(0.000557968 1.66895e-10 -2.06596e-10)
(0.000557979 -3.44473e-11 2.57016e-10)
(0.00055797 -3.20897e-13 -2.57364e-10)
(0.000557981 -2.32768e-11 2.41558e-10)
(0.000557963 3.01765e-11 -2.28346e-10)
(0.000557984 8.26815e-12 2.08062e-10)
(0.000557961 3.10926e-11 -2.03881e-10)
(0.000557983 1.75624e-10 8.69697e-11)
(0.000557962 -2.15689e-10 -6.46785e-11)
(0.00055798 9.26253e-11 1.377e-10)
(0.000557965 5.63802e-11 -1.49712e-10)
(0.000557977 2.62334e-10 8.48579e-11)
(0.000557968 -4.22484e-10 -6.37386e-11)
(0.000557974 7.87429e-12 1.37662e-10)
(0.00055797 -2.42725e-11 -1.26173e-10)
(0.000557973 2.84324e-12 1.24389e-10)
(0.000557969 1.55684e-12 -1.19944e-10)
(0.000557973 -2.36331e-11 1.1359e-10)
(0.000557971 1.52458e-11 -1.33738e-10)
(0.00055797 -1.58785e-11 1.50645e-10)
(0.000464284 -6.41702e-06 1.22434e-05)
(0.00060051 -2.34813e-07 4.41056e-07)
(0.000503804 1.54571e-07 -3.04662e-07)
(0.000571547 -1.09742e-07 2.14385e-07)
(0.000523962 7.6519e-08 -1.50516e-07)
(0.000557417 -5.35477e-08 1.05474e-07)
(0.000533826 3.78672e-08 -7.42057e-08)
(0.000550544 -2.72158e-08 5.17405e-08)
(0.000538575 2.01544e-08 -3.60364e-08)
(0.000547213 -1.49935e-08 2.51611e-08)
(0.000541048 1.08396e-08 -1.69468e-08)
(0.000545352 -7.27129e-09 1.11905e-08)
(0.000542505 4.20183e-09 -6.81774e-09)
(0.000544263 -2.15346e-09 3.88654e-09)
(0.000543268 1.17008e-09 -1.89823e-09)
(0.000543778 -5.66435e-10 6.88197e-10)
(0.000543546 2.59383e-10 -1.12392e-10)
(0.000543623 -7.98926e-11 -2.72897e-10)
(0.000543596 -7.51187e-11 3.31897e-10)
(0.000543595 8.57222e-11 -4.10773e-10)
(0.000543603 -4.88132e-11 4.09376e-10)
(0.000543588 6.70423e-11 -4.12341e-10)
(0.000543601 -2.07487e-10 3.18915e-10)
(0.000543587 2.30706e-10 -2.98248e-10)
(0.000543599 -2.86916e-10 2.40869e-10)
(0.000543585 2.91367e-10 -2.19338e-10)
(0.0005436 -1.70583e-10 3.37837e-10)
(0.000543588 1.04903e-10 -3.33725e-10)
(0.000543602 -5.28957e-11 3.32541e-10)
(0.000543588 6.79138e-11 -3.03681e-10)
(0.000543599 -1.62073e-10 2.33903e-10)
(0.000543587 1.5498e-10 -2.06082e-10)
(0.000543599 -3.44007e-11 2.56512e-10)
(0.00054359 -2.90284e-12 -2.56819e-10)
(0.0005436 -1.65936e-11 2.41018e-10)
(0.000543583 4.03669e-11 -2.27329e-10)
(0.000543603 -6.81175e-12 2.05362e-10)
(0.000543581 4.4941e-11 -2.03127e-10)
(0.000543602 1.3823e-10 6.36183e-11)
(0.000543582 -1.6149e-10 -3.94814e-11)
(0.000543599 5.37651e-11 1.28478e-10)
(0.000543585 8.42152e-11 -1.47467e-10)
(0.000543597 1.91049e-10 6.07198e-11)
(0.000543587 -3.3054e-10 -3.17557e-11)
(0.000543594 -2.48346e-11 1.35565e-10)
(0.000543589 2.4671e-12 -1.23645e-10)
(0.000543593 -1.08442e-11 1.24396e-10)
(0.000543589 6.10784e-12 -1.20092e-10)
(0.000543592 -2.30777e-11 1.15205e-10)
(0.000543591 2.10149e-11 -1.33718e-10)
(0.00054359 -2.41789e-11 1.51346e-10)
(0.000439038 -1.04038e-05 1.24209e-05)
(0.000567665 -3.74849e-07 4.42193e-07)
(0.00047613 2.47911e-07 -3.05398e-07)
(0.000540184 -1.75707e-07 2.14914e-07)
(0.000495203 1.22598e-07 -1.50931e-07)
(0.000526809 -8.57437e-08 1.0583e-07)
(0.000504541 6.06484e-08 -7.44837e-08)
(0.000520308 -4.36669e-08 5.19507e-08)
(0.000509021 3.21845e-08 -3.61758e-08)
(0.000517178 -2.4148e-08 2.52039e-08)
(0.000511335 1.74012e-08 -1.69595e-08)
(0.000515433 -1.1942e-08 1.1163e-08)
(0.000512708 7.33361e-09 -6.76452e-09)
(0.000514401 -3.97502e-09 3.8454e-09)
(0.000513438 2.16985e-09 -1.87795e-09)
(0.000513935 -9.81377e-10 6.89365e-10)
(0.000513707 4.42224e-10 -1.1149e-10)
(0.000513785 -9.87605e-11 -2.71981e-10)
(0.000513756 -8.68151e-11 3.28866e-10)
(0.000513757 1.17624e-10 -4.08178e-10)
(0.000513764 -8.323e-11 4.0765e-10)
(0.00051375 9.98935e-11 -4.16271e-10)
(0.000513761 -2.24271e-10 3.19739e-10)
(0.000513749 2.45686e-10 -3.0186e-10)
(0.00051376 -3.01724e-10 2.41015e-10)
(0.000513747 3.07733e-10 -2.1883e-10)
(0.00051376 -2.08235e-10 3.41771e-10)
(0.000513749 1.33821e-10 -3.31286e-10)
(0.000513763 -8.48865e-11 3.30457e-10)
(0.000513749 9.37462e-11 -3.04162e-10)
(0.00051376 -1.54047e-10 2.33494e-10)
(0.000513749 1.37788e-10 -2.06692e-10)
(0.000513759 -3.56532e-11 2.57902e-10)
(0.000513751 -3.88107e-13 -2.55363e-10)
(0.00051376 -1.52306e-11 2.37879e-10)
(0.000513745 5.09657e-11 -2.27192e-10)
(0.000513763 -2.48032e-11 2.03624e-10)
(0.000513743 5.87665e-11 -2.04162e-10)
(0.000513762 9.13904e-11 4.57732e-11)
(0.000513745 -9.90371e-11 -2.1124e-11)
(0.00051376 1.06558e-11 1.2288e-10)
(0.000513747 1.09213e-10 -1.46693e-10)
(0.000513758 1.09693e-10 4.07443e-11)
(0.000513749 -2.22184e-10 -6.07177e-12)
(0.000513755 -5.75323e-11 1.3524e-10)
(0.000513751 3.00333e-11 -1.22918e-10)
(0.000513754 -2.56855e-11 1.25681e-10)
(0.00051375 1.21905e-11 -1.21241e-10)
(0.000513754 -2.30669e-11 1.17836e-10)
(0.000513752 2.6492e-11 -1.33578e-10)
(0.000513751 -3.15934e-11 1.50271e-10)
(0.000398575 -1.38989e-05 1.26704e-05)
(0.00051508 -4.86647e-07 4.42787e-07)
(0.000431856 3.24194e-07 -3.05792e-07)
(0.000489998 -2.29319e-07 2.15201e-07)
(0.000449184 1.60177e-07 -1.51166e-07)
(0.000477838 -1.12186e-07 1.06017e-07)
(0.000457677 7.94346e-08 -7.46041e-08)
(0.000471933 -5.7267e-08 5.20055e-08)
(0.000461729 4.20381e-08 -3.61652e-08)
(0.000469117 -3.14163e-08 2.51267e-08)
(0.000463798 2.24943e-08 -1.68751e-08)
(0.000467554 -1.54573e-08 1.10651e-08)
(0.000465035 9.65486e-09 -6.67041e-09)
(0.000466615 -5.31994e-09 3.77873e-09)
(0.00046571 2.88063e-09 -1.83898e-09)
(0.000466181 -1.27317e-09 6.77187e-10)
(0.000465963 5.52989e-10 -9.96141e-11)
(0.00046604 -9.24131e-11 -2.79839e-10)
(0.00046601 -1.0269e-10 3.32898e-10)
(0.000466013 1.49718e-10 -4.11801e-10)
(0.000466018 -1.23528e-10 4.11314e-10)
(0.000466006 1.4673e-10 -4.25147e-10)
(0.000466015 -2.41765e-10 3.27169e-10)
(0.000466005 2.63497e-10 -3.12421e-10)
(0.000466014 -3.14163e-10 2.49569e-10)
(0.000466003 3.1768e-10 -2.26692e-10)
(0.000466015 -2.46265e-10 3.49917e-10)
(0.000466005 1.61111e-10 -3.32532e-10)
(0.000466017 -1.17787e-10 3.32507e-10)
(0.000466004 1.22366e-10 -3.09607e-10)
(0.000466015 -1.43931e-10 2.39031e-10)
(0.000466004 1.20426e-10 -2.13556e-10)
(0.000466014 -4.53815e-11 2.64546e-10)
(0.000466007 9.79693e-12 -2.58647e-10)
(0.000466014 -1.83837e-11 2.38706e-10)
(0.000466002 6.59206e-11 -2.3136e-10)
(0.000466017 -4.78983e-11 2.06107e-10)
(0.000466 7.75588e-11 -2.08812e-10)
(0.000466016 3.74283e-11 3.91026e-11)
(0.000466001 -3.09683e-11 -1.45419e-11)
(0.000466014 -3.74386e-11 1.22684e-10)
(0.000466004 1.32652e-10 -1.486e-10)
(0.000466012 2.68155e-11 3.00136e-11)
(0.000466005 -1.08175e-10 8.11985e-12)
(0.000466011 -9.11358e-11 1.36972e-10)
(0.000466006 5.97131e-11 -1.24621e-10)
(0.00046601 -4.48812e-11 1.28731e-10)
(0.000466006 2.32415e-11 -1.24354e-10)
(0.000466009 -2.82825e-11 1.22076e-10)
(0.000466008 3.13683e-11 -1.35289e-10)
(0.000466007 -3.34099e-11 1.50313e-10)
(0.000338842 -1.64363e-05 1.29572e-05)
(0.00043757 -5.41034e-07 4.38223e-07)
(0.000366659 3.63701e-07 -3.02593e-07)
(0.000416074 -2.56745e-07 2.1283e-07)
(0.000381404 1.79622e-07 -1.49452e-07)
(0.000405719 -1.26079e-07 1.04688e-07)
(0.000388641 8.9367e-08 -7.35955e-08)
(0.000400694 -6.43574e-08 5.11903e-08)
(0.000392071 4.69132e-08 -3.55257e-08)
(0.000398329 -3.45159e-08 2.46515e-08)
(0.000393792 2.43914e-08 -1.65191e-08)
(0.000397025 -1.65073e-08 1.07983e-08)
(0.000394832 1.02347e-08 -6.48072e-09)
(0.000396225 -5.62655e-09 3.6507e-09)
(0.000395419 2.96425e-09 -1.76075e-09)
(0.000395845 -1.26416e-09 6.13514e-10)
(0.000395645 4.81049e-10 -5.09572e-11)
(0.000395718 -2.61975e-11 -2.93203e-10)
(0.000395689 -1.58267e-10 3.60036e-10)
(0.000395693 2.11635e-10 -4.34805e-10)
(0.000395696 -2.02373e-10 4.36698e-10)
(0.000395687 2.23052e-10 -4.2943e-10)
(0.000395694 -2.84637e-10 3.47219e-10)
(0.000395686 3.02823e-10 -3.25856e-10)
(0.000395693 -3.41165e-10 2.65741e-10)
(0.000395683 3.39433e-10 -2.47778e-10)
(0.000395694 -2.91079e-10 3.54045e-10)
(0.000395685 2.14711e-10 -3.56847e-10)
(0.000395696 -1.75813e-10 3.52177e-10)
(0.000395684 1.6761e-10 -3.18652e-10)
(0.000395694 -1.59773e-10 2.60455e-10)
(0.000395684 1.31688e-10 -2.34568e-10)
(0.000395692 -8.22855e-11 2.72659e-10)
(0.000395687 5.56592e-11 -2.75982e-10)
(0.000395692 -6.05704e-11 2.6352e-10)
(0.000395683 1.02498e-10 -2.41831e-10)
(0.000395695 -9.2054e-11 2.17791e-10)
(0.000395681 1.12068e-10 -2.14485e-10)
(0.000395694 -3.18917e-11 5.40041e-11)
(0.000395683 4.22595e-11 -2.44383e-11)
(0.000395692 -9.11963e-11 1.2734e-10)
(0.000395685 1.56471e-10 -1.53778e-10)
(0.000395691 -5.30739e-11 3.95974e-11)
(0.000395685 2.31308e-13 1.71428e-12)
(0.000395691 -1.24202e-10 1.38829e-10)
(0.000395686 9.31573e-11 -1.27748e-10)
(0.00039569 -7.32688e-11 1.31688e-10)
(0.000395686 4.77833e-11 -1.28998e-10)
(0.000395689 -4.5654e-11 1.24518e-10)
(0.000395688 4.47794e-11 -1.41417e-10)
(0.000395687 -4.53758e-11 1.62359e-10)
(0.000251736 -1.59836e-05 1.27203e-05)
(0.000324765 -4.61713e-07 3.99916e-07)
(0.000271904 3.12969e-07 -2.75995e-07)
(0.000308601 -2.20543e-07 1.93891e-07)
(0.000282871 1.5454e-07 -1.36066e-07)
(0.000300891 -1.08688e-07 9.53269e-08)
(0.000288263 7.7079e-08 -6.70844e-08)
(0.000297153 -5.53484e-08 4.68621e-08)
(0.000290799 4.00086e-08 -3.26623e-08)
(0.000295421 -2.8668e-08 2.27243e-08)
(0.000292041 1.98718e-08 -1.52072e-08)
(0.000294478 -1.29756e-08 9.86812e-09)
(0.0002928 7.79693e-09 -5.89744e-09)
(0.000293883 -4.18392e-09 3.26519e-09)
(0.000293248 2.02901e-09 -1.54618e-09)
(0.000293591 -7.76037e-10 5.11513e-10)
(0.000293427 1.50971e-10 -1.83054e-11)
(0.000293489 8.75374e-11 -2.67242e-10)
(0.000293463 -2.39063e-10 3.39556e-10)
(0.000293469 2.72915e-10 -3.98563e-10)
(0.00029347 -2.86481e-10 4.00699e-10)
(0.000293464 2.75651e-10 -3.84162e-10)
(0.000293468 -3.14091e-10 3.32249e-10)
(0.000293463 3.20725e-10 -3.10405e-10)
(0.000293467 -3.45328e-10 2.64323e-10)
(0.000293461 3.41212e-10 -2.52453e-10)
(0.000293468 -2.95607e-10 3.25122e-10)
(0.000293461 2.68267e-10 -3.34915e-10)
(0.00029347 -2.33539e-10 3.22936e-10)
(0.00029346 2.00424e-10 -2.87869e-10)
(0.000293469 -1.86927e-10 2.45446e-10)
(0.000293461 1.60237e-10 -2.2158e-10)
(0.000293467 -1.25994e-10 2.40785e-10)
(0.000293464 1.2342e-10 -2.47786e-10)
(0.000293466 -1.34946e-10 2.45527e-10)
(0.000293461 1.4261e-10 -2.222e-10)
(0.000293468 -1.40421e-10 2.04178e-10)
(0.00029346 1.39193e-10 -1.9492e-10)
(0.000293468 -1.21065e-10 8.05465e-11)
(0.000293461 1.24618e-10 -5.35825e-11)
(0.000293467 -1.34511e-10 1.29476e-10)
(0.000293463 1.57521e-10 -1.50079e-10)
(0.000293467 -1.33046e-10 6.693e-11)
(0.000293463 1.11708e-10 -3.31048e-11)
(0.000293467 -1.34694e-10 1.32893e-10)
(0.000293462 1.1326e-10 -1.22616e-10)
(0.000293466 -9.3854e-11 1.21902e-10)
(0.000293462 7.22629e-11 -1.18075e-10)
(0.000293465 -6.08547e-11 1.10435e-10)
(0.000293464 5.76187e-11 -1.23487e-10)
(0.000293464 -6.1342e-11 1.4558e-10)
(0.000118157 -7.82902e-06 7.82902e-06)
(0.000152237 -2.20719e-07 2.20715e-07)
(0.00012727 1.52436e-07 -1.52442e-07)
(0.000144482 -1.06917e-07 1.06895e-07)
(0.000132426 7.50119e-08 -7.49811e-08)
(0.000140852 -5.28042e-08 5.27442e-08)
(0.000134967 3.74142e-08 -3.73813e-08)
(0.000139096 -2.67071e-08 2.66535e-08)
(0.000136145 1.91187e-08 -1.90172e-08)
(0.000138303 -1.34621e-08 1.35774e-08)
(0.000136705 9.24477e-09 -9.26427e-09)
(0.000137875 -5.97666e-09 6.10324e-09)
(0.000137056 3.56491e-09 -3.73946e-09)
(0.000137594 -1.94591e-09 2.06097e-09)
(0.000137274 9.38073e-10 -1.0239e-09)
(0.000137449 -3.61334e-10 3.93413e-10)
(0.000137365 4.99967e-11 -1.06478e-10)
(0.000137398 5.94381e-11 -7.55245e-11)
(0.000137383 -1.30812e-10 1.19918e-10)
(0.000137387 1.52587e-10 -1.4762e-10)
(0.000137387 -1.62499e-10 1.48852e-10)
(0.000137385 1.56895e-10 -1.56534e-10)
(0.000137386 -1.68759e-10 1.44071e-10)
(0.000137384 1.70468e-10 -1.42178e-10)
(0.000137385 -1.75538e-10 1.32599e-10)
(0.000137383 1.73044e-10 -1.27727e-10)
(0.000137386 -1.53568e-10 1.4861e-10)
(0.000137383 1.48607e-10 -1.32188e-10)
(0.000137387 -1.32034e-10 1.22449e-10)
(0.000137382 1.1244e-10 -1.12997e-10)
(0.000137387 -1.07911e-10 8.82281e-11)
(0.000137383 9.57742e-11 -7.6042e-11)
(0.000137385 -7.98192e-11 8.1303e-11)
(0.000137384 8.17302e-11 -7.74378e-11)
(0.000137385 -8.70097e-11 7.74055e-11)
(0.000137383 8.36603e-11 -8.42373e-11)
(0.000137386 -8.19768e-11 8.03831e-11)
(0.000137383 8.06021e-11 -7.92024e-11)
(0.000137386 -6.70723e-11 5.34046e-11)
(0.000137383 6.35791e-11 -5.15531e-11)
(0.000137385 -7.32823e-11 7.03544e-11)
(0.000137384 8.3066e-11 -7.65724e-11)
(0.000137385 -6.33774e-11 6.08133e-11)
(0.000137383 5.13532e-11 -5.46387e-11)
(0.000137386 -7.07681e-11 6.97604e-11)
(0.000137383 6.0686e-11 -6.0763e-11)
(0.000137385 -5.28708e-11 5.35408e-11)
(0.000137383 4.42221e-11 -4.52525e-11)
(0.000137385 -3.85327e-11 3.96671e-11)
(0.000137384 3.69541e-11 -3.99097e-11)
(0.000137384 -3.80863e-11 4.13904e-11)
(0.000251736 1.27203e-05 1.59836e-05)
(0.000324765 3.99939e-07 4.61717e-07)
(0.000271905 -2.7605e-07 -3.12957e-07)
(0.000308599 1.9394e-07 2.20543e-07)
(0.000282876 -1.3613e-07 -1.54511e-07)
(0.000300886 9.52582e-08 1.08563e-07)
(0.00028827 -6.70092e-08 -7.69616e-08)
(0.000297148 4.67959e-08 5.51516e-08)
(0.000290801 -3.25626e-08 -3.98308e-08)
(0.000295424 2.27202e-08 2.88648e-08)
(0.000292036 -1.511e-08 -2.00096e-08)
(0.000294483 9.87508e-09 1.33815e-08)
(0.000292796 -6.14985e-09 -8.38606e-09)
(0.000293887 3.47703e-09 4.69648e-09)
(0.000293247 -1.58811e-09 -2.29353e-09)
(0.000293592 4.6731e-10 8.96725e-10)
(0.000293427 3.20155e-12 -2.71953e-10)
(0.00029349 -2.9727e-10 -1.15432e-10)
(0.000293463 3.80852e-10 2.03157e-10)
(0.000293469 -4.18886e-10 -2.6272e-10)
(0.00029347 4.1875e-10 2.58312e-10)
(0.000293464 -3.86088e-10 -2.74857e-10)
(0.000293468 3.54123e-10 2.52645e-10)
(0.000293464 -3.23011e-10 -2.52146e-10)
(0.000293467 2.98576e-10 2.28638e-10)
(0.000293461 -2.97423e-10 -2.14536e-10)
(0.000293468 3.17613e-10 2.69752e-10)
(0.000293461 -3.59033e-10 -2.28203e-10)
(0.00029347 3.38638e-10 2.14807e-10)
(0.00029346 -2.97387e-10 -1.93968e-10)
(0.000293469 2.54132e-10 1.37489e-10)
(0.000293461 -2.2992e-10 -1.09861e-10)
(0.000293467 2.47898e-10 1.19296e-10)
(0.000293464 -2.59763e-10 -1.15046e-10)
(0.000293466 2.68572e-10 1.17523e-10)
(0.000293461 -2.3762e-10 -1.43228e-10)
(0.000293468 2.38151e-10 1.4032e-10)
(0.00029346 -2.03738e-10 -1.39522e-10)
(0.000293468 3.07238e-10 1.10387e-10)
(0.000293462 -2.98208e-10 -1.22325e-10)
(0.000293467 2.24115e-10 1.44895e-10)
(0.000293463 -1.69685e-10 -1.54865e-10)
(0.000293467 3.05966e-10 1.53302e-10)
(0.000293463 -3.53566e-10 -1.49626e-10)