/*--------------------------------*- C++ -*----------------------------------*\
  =========                 |
  \\      /  F ield         | OpenFOAM: The Open Source CFD Toolbox
   \\    /   O peration     | Website:  https://openfoam.org
    \\  /    A nd           | Version:  13
     \\/     M anipulation  |
\*---------------------------------------------------------------------------*/
FoamFile
{
    format      ascii;
    class       surfaceScalarField;
    location    "33";
    object      phi;
}
// * * * * * * * * * * * * * * * * * * * * * * * * * * * * * * * * * * * * * //

dimensions      [0 3 -1 0 0 0 0];

internalField   nonuniform List<scalar> 
1275
(
3.03348e-11
1.81726e-11
1.81726e-11
2.64251e-11
1.95488e-12
1.95488e-12
2.74659e-11
-5.20436e-13
-5.20431e-13
2.72708e-11
9.75843e-14
9.75801e-14
2.73183e-11
-2.37723e-14
-2.3773e-14
2.73071e-11
5.59104e-15
5.59171e-15
2.73096e-11
-1.27368e-15
-1.27569e-15
2.73087e-11
4.51834e-16
4.53117e-16
2.73094e-11
-3.92073e-16
-4.03261e-16
2.73072e-11
8.50661e-16
8.3741e-16
2.73098e-11
-1.12005e-15
-1.09488e-15
2.73066e-11
1.29923e-15
1.27518e-15
2.73098e-11
-1.33475e-15
-1.29584e-15
2.7307e-11
1.14947e-15
1.12922e-15
2.73094e-11
-9.84913e-16
-9.4958e-16
2.73084e-11
4.79845e-16
4.86884e-16
2.73091e-11
-2.45036e-16
-2.59463e-16
2.73088e-11
1.19537e-16
1.28787e-16
2.73092e-11
-1.50307e-16
-1.52932e-16
1.38381e-16
1.4895e-16
5.06025e-11
8.06863e-12
2.61817e-11
4.83053e-11
1.02711e-12
3.225e-12
4.88693e-11
-2.70022e-13
-8.14544e-13
4.88002e-11
4.5806e-14
1.20974e-13
4.88173e-11
-1.13491e-14
-2.96805e-14
4.88133e-11
2.66625e-15
6.90328e-15
4.8814e-11
-6.02218e-16
-1.47941e-15
4.88135e-11
1.70056e-16
6.62573e-16
4.8814e-11
-2.58161e-16
-7.73091e-16
4.88115e-11
6.37595e-17
1.8009e-15
4.88142e-11
-3.47299e-16
-2.35429e-15
4.88107e-11
2.14421e-16
2.77262e-15
4.88141e-11
-3.32613e-16
-2.79856e-15
4.88112e-11
2.35864e-16
2.45862e-15
4.88139e-11
-1.78634e-16
-2.0503e-15
4.8813e-11
2.19926e-16
1.05817e-15
4.88137e-11
-2.61105e-17
-5.60678e-16
4.88135e-11
6.31786e-17
2.7257e-16
4.88139e-11
-7.78612e-18
-3.36627e-16
5.78296e-17
3.16644e-16
5.57821e-11
-8.06861e-12
2.70353e-11
5.44088e-11
-1.02707e-12
3.42749e-12
5.47355e-11
2.69941e-13
-8.66767e-13
5.47083e-11
-4.57088e-14
1.18847e-13
5.47147e-11
1.12341e-14
-2.91367e-14
5.47133e-11
-2.64872e-15
6.65571e-15
5.47134e-11
5.77174e-16
-1.35082e-15
5.4713e-11
-2.77697e-16
6.72821e-16
5.47134e-11
1.47229e-16
-9.56881e-16
5.47109e-11
-8.65869e-16
2.05124e-15
5.47136e-11
9.32476e-16
-2.85603e-15
5.471e-11
-1.26313e-15
3.27496e-15
5.47135e-11
1.19762e-15
-3.35416e-15
5.47106e-11
-1.08674e-15
2.93506e-15
5.47133e-11
9.66343e-16
-2.43507e-15
5.47125e-11
-3.47075e-16
1.33543e-15
5.47131e-11
2.41732e-16
-6.48677e-16
5.4713e-11
-7.0051e-17
3.33909e-16
5.47134e-11
1.65136e-16
-3.88713e-16
-1.03553e-16
3.99163e-16
5.06025e-11
-1.81725e-11
2.61816e-11
4.83053e-11
-1.95484e-12
3.22501e-12
4.88693e-11
5.20378e-13
-8.14543e-13
4.88002e-11
-9.75258e-14
1.2099e-13
4.88173e-11
2.371e-14
-2.97247e-14
4.88133e-11
-5.59558e-15
6.92053e-15
4.8814e-11
1.24629e-15
-1.48631e-15
4.88135e-11
-5.1864e-16
6.32783e-16
4.8814e-11
3.30629e-16
-8.27999e-16
4.88115e-11
-1.35336e-15
1.59405e-15
4.88142e-11
1.52488e-15
-2.18327e-15
4.88107e-11
-1.94828e-15
2.49242e-15
4.88141e-11
1.92425e-15
-2.54116e-15
4.88112e-11
-1.66215e-15
2.22567e-15
4.88139e-11
1.51812e-15
-1.81485e-15
4.8813e-11
-5.39545e-16
1.03789e-15
4.88137e-11
3.61952e-16
-5.27112e-16
4.88135e-11
-1.1649e-16
2.84815e-16
4.88139e-11
2.43715e-16
-2.87602e-16
-1.72679e-16
3.01792e-16
3.03348e-11
1.81726e-11
2.64251e-11
1.95491e-12
2.74659e-11
-5.20468e-13
2.72708e-11
9.76173e-14
2.73183e-11
-2.38148e-14
2.73071e-11
5.59079e-15
2.73096e-11
-1.29295e-15
2.73087e-11
4.16948e-16
2.73094e-11
-4.4668e-16
2.73072e-11
5.82691e-16
2.73098e-11
-8.63113e-16
2.73066e-11
9.4207e-16
2.73098e-11
-9.53184e-16
2.7307e-11
8.64068e-16
2.73095e-11
-6.34515e-16
2.73084e-11
4.61026e-16
2.73091e-11
-2.05307e-16
2.73088e-11
1.29551e-16
2.73092e-11
-9.82534e-17
1.20984e-16
5.06025e-11
2.61817e-11
8.06863e-12
4.83053e-11
3.22501e-12
1.02711e-12
4.88693e-11
-8.14551e-13
-2.70011e-13
4.88002e-11
1.20978e-13
4.57991e-14
4.88173e-11
-2.96853e-14
-1.13452e-14
4.88133e-11
6.90699e-15
2.6639e-15
4.8814e-11
-1.47848e-15
-6.0427e-16
4.88135e-11
6.62698e-16
1.71601e-16
4.8814e-11
-7.68324e-16
-2.71339e-16
4.88115e-11
1.84545e-15
2.49053e-17
4.88142e-11
-2.42614e-15
-2.76029e-16
4.88107e-11
2.8298e-15
1.59515e-16
4.88141e-11
-2.8919e-15
-2.35911e-16
4.88112e-11
2.50822e-15
1.87823e-16
4.88139e-11
-2.13542e-15
-8.89702e-17
4.8813e-11
1.05065e-15
2.31963e-16
4.88137e-11
-5.47101e-16
-4.92706e-17
4.88135e-11
2.71336e-16
7.14552e-17
4.88139e-11
-3.35681e-16
-1.06383e-17
2.99756e-16
8.11856e-17
9.36698e-11
1.2687e-11
1.2687e-11
9.64474e-11
1.83624e-12
1.83624e-12
9.57119e-11
-4.46929e-13
-4.46919e-13
9.58451e-11
5.45122e-14
5.45035e-14
9.58145e-11
-1.4576e-14
-1.45732e-14
9.5821e-11
3.61954e-15
3.61771e-15
9.58195e-11
-8.18413e-16
-8.22203e-16
9.582e-11
2.1185e-16
2.14434e-16
9.58186e-11
-3.05138e-16
-3.24574e-16
9.58187e-11
-1.6139e-17
-4.39819e-17
9.58174e-11
-3.54333e-16
-3.05e-16
9.58182e-11
1.58034e-16
1.21026e-16
9.58172e-11
-3.02246e-16
-2.22261e-16
9.58183e-11
2.22193e-16
1.9603e-16
9.5818e-11
-1.16812e-16
-4.43177e-17
9.58194e-11
2.71744e-16
3.01252e-16
9.5819e-11
1.18701e-17
-2.01248e-17
9.58196e-11
5.45995e-17
6.68152e-17
9.58196e-11
8.08256e-19
-3.10533e-18
6.55321e-17
9.35861e-17
1.0574e-10
-1.26868e-11
1.33491e-11
1.10852e-10
-1.83618e-12
1.98843e-12
1.09572e-10
4.46735e-13
-4.80235e-13
1.09748e-10
-5.43497e-14
5.12271e-14
1.09704e-10
1.44803e-14
-1.41904e-14
1.09714e-10
-3.66089e-15
3.54512e-15
1.09712e-10
7.83561e-16
-7.7803e-16
1.09712e-10
-4.16556e-16
2.01332e-16
1.09711e-10
1.82587e-16
-4.17953e-16
1.09711e-10
-1.41438e-15
-7.25669e-17
1.0971e-10
1.34996e-15
-3.79134e-16
1.0971e-10
-1.89926e-15
1.65846e-16
1.09709e-10
1.7821e-15
-2.72146e-16
1.0971e-10
-1.56228e-15
2.62898e-16
1.0971e-10
1.47387e-15
-4.53509e-17
1.09712e-10
-3.96173e-16
4.1755e-16
1.09711e-10
3.95295e-16
-4.40446e-17
1.09712e-10
-1.06883e-16
9.88474e-17
1.09712e-10
2.43777e-16
4.83937e-18
-1.34598e-16
1.22604e-16
9.36698e-11
-2.61815e-11
1.26869e-11
9.64474e-11
-3.22499e-12
1.83628e-12
9.57119e-11
8.14415e-13
-4.46915e-13
9.58451e-11
-1.20868e-13
5.45102e-14
9.58145e-11
2.965e-14
-1.46099e-14
9.5821e-11
-6.96165e-15
3.65806e-15
9.58195e-11
1.4714e-15
-8.20918e-16
9.582e-11
-7.97545e-16
2.07469e-16
9.58186e-11
7.07867e-16
-4.36641e-16
9.58187e-11
-2.70342e-15
6.95225e-17
9.58174e-11
3.0326e-15
-4.74964e-16
9.58182e-11
-3.84291e-15
3.15127e-16
9.58172e-11
3.79088e-15
-3.67788e-16
9.58183e-11
-3.28525e-15
3.72121e-16
9.58181e-11
2.98737e-15
-1.22916e-16
9.58194e-11
-1.138e-15
4.0923e-16
9.58191e-11
8.20865e-16
-3.92924e-17
9.58196e-11
-3.4125e-16
8.32769e-17
9.58196e-11
4.95268e-16
6.28944e-18
-3.6114e-16
8.30224e-17
5.06025e-11
8.0687e-12
4.83053e-11
1.02712e-12
4.88693e-11
-2.70078e-13
4.88002e-11
4.58555e-14
4.88173e-11
-1.13243e-14
4.88133e-11
2.62922e-15
4.8814e-11
-5.82274e-16
4.88135e-11
1.42564e-16
4.88139e-11
-2.49598e-16
4.88115e-11
3.4967e-17
4.88142e-11
-2.74982e-16
4.88107e-11
2.05959e-16
4.88141e-11
-2.17449e-16
4.88112e-11
2.19817e-16
4.88139e-11
-2.77962e-17
4.8813e-11
1.91558e-16
4.88137e-11
2.6883e-17
4.88135e-11
-1.50911e-17
4.88139e-11
8.95938e-18
5.43473e-17
5.57821e-11
2.70353e-11
-8.0686e-12
5.44088e-11
3.4275e-12
-1.02708e-12
5.47355e-11
-8.66768e-13
2.69943e-13
5.47083e-11
1.18847e-13
-4.57115e-14
5.47147e-11
-2.9146e-14
1.12434e-14
5.47133e-11
6.66369e-15
-2.65758e-15
5.47134e-11
-1.35368e-15
5.79911e-16
5.4713e-11
6.75723e-16
-2.7998e-16
5.47134e-11
-9.69989e-16
1.57638e-16
5.47109e-11
2.07608e-15
-8.92319e-16
5.47136e-11
-2.88676e-15
9.77952e-16
5.471e-11
3.30576e-15
-1.29968e-15
5.47135e-11
-3.39623e-15
1.25489e-15
5.47106e-11
2.9611e-15
-1.12076e-15
5.47133e-11
-2.47105e-15
1.01782e-15
5.47125e-11
1.34176e-15
-3.58346e-16
5.47131e-11
-6.53542e-16
2.45123e-16
5.4713e-11
3.48102e-16
-8.01128e-17
5.47134e-11
-3.90857e-16
1.67932e-16
3.90296e-16
-9.59273e-17
1.0574e-10
1.33491e-11
-1.26868e-11
1.10852e-10
1.98843e-12
-1.83617e-12
1.09572e-10
-4.80247e-13
4.46744e-13
1.09748e-10
5.1236e-14
-5.43582e-14
1.09704e-10
-1.41963e-14
1.44765e-14
1.09714e-10
3.54963e-15
-3.65518e-15
1.09712e-10
-7.74559e-16
7.78142e-16
1.09712e-10
1.99703e-16
-4.09829e-16
1.09711e-10
-4.02055e-16
1.5353e-16
1.09711e-10
-1.7696e-17
-1.39788e-15
1.0971e-10
-4.69513e-16
1.34754e-15
1.0971e-10
2.33647e-16
-1.87318e-15
1.09709e-10
-3.9989e-16
1.79051e-15
1.0971e-10
3.16456e-16
-1.53483e-15
1.0971e-10
-1.60899e-16
1.48651e-15
1.09712e-10
3.88003e-16
-3.55025e-16
1.09711e-10
-1.11535e-17
3.5778e-16
1.09712e-10
9.07335e-17
-8.58811e-17
1.09712e-10
7.73233e-18
2.38074e-16
8.97283e-17
-1.10562e-16
1.20077e-10
-1.3349e-11
-1.3349e-11
1.2803e-10
-1.98831e-12
-1.98832e-12
1.26109e-10
4.79999e-13
4.80008e-13
1.26314e-10
-5.10167e-14
-5.10233e-14
1.26257e-10
1.40328e-14
1.40382e-14
1.26272e-10
-3.56559e-15
-3.56882e-15
1.26268e-10
7.41422e-16
7.39651e-16
1.26269e-10
-4.63756e-16
-4.6163e-16
1.26268e-10
1.26718e-16
1.16217e-16
1.26267e-10
-1.62085e-15
-1.64343e-15
1.26266e-10
1.49206e-15
1.53928e-15
1.26267e-10
-2.13061e-15
-2.15497e-15
1.26266e-10
2.01994e-15
2.08731e-15
1.26267e-10
-1.74461e-15
-1.76295e-15
1.26267e-10
1.71563e-15
1.7789e-15
1.26268e-10
-4.0388e-16
-3.81342e-16
1.26268e-10
4.81984e-16
4.58414e-16
1.26269e-10
-1.40345e-16
-1.36022e-16
1.26269e-10
3.10472e-16
3.08511e-16
-1.84603e-16
-1.59937e-16
1.0574e-10
-2.70352e-11
-1.26869e-11
1.10852e-10
-3.42742e-12
-1.83619e-12
1.09572e-10
8.66693e-13
4.46772e-13
1.09748e-10
-1.18794e-13
-5.43775e-14
1.09704e-10
2.90205e-14
1.44872e-14
1.09714e-10
-6.65109e-15
-3.65459e-15
1.09712e-10
1.28762e-15
7.78544e-16
1.09712e-10
-7.91457e-16
-4.10587e-16
1.09711e-10
7.82754e-16
1.45008e-16
1.09711e-10
-3.06461e-15
-1.35553e-15
1.0971e-10
3.59073e-15
1.30675e-15
1.0971e-10
-4.50808e-15
-1.79999e-15
1.09709e-10
4.44804e-15
1.74792e-15
1.0971e-10
-3.85378e-15
-1.4677e-15
1.0971e-10
3.40873e-15
1.45924e-15
1.09712e-10
-1.29306e-15
-3.26352e-16
1.09711e-10
7.94117e-16
3.51919e-16
1.09712e-10
-2.39612e-16
-8.76533e-17
1.09712e-10
5.604e-16
2.32636e-16
-4.42416e-16
-1.22879e-16
5.57821e-11
-8.06858e-12
5.44088e-11
-1.02704e-12
5.47355e-11
2.69914e-13
5.47083e-11
-4.56991e-14
5.47147e-11
1.12366e-14
5.47133e-11
-2.66023e-15
5.47134e-11
5.79909e-16
5.4713e-11
-2.8e-16
5.47134e-11
1.27572e-16
5.47109e-11
-8.38446e-16
5.47136e-11
9.11603e-16
5.471e-11
-1.18828e-15
5.47135e-11
1.1798e-15
5.47106e-11
-1.0108e-15
5.47133e-11
9.67112e-16
5.47125e-11
-2.96132e-16
5.47131e-11
2.20472e-16
5.4713e-11
-6.717e-17
5.47134e-11
1.68219e-16
-1.01001e-16
5.06025e-11
2.61816e-11
-1.81725e-11
4.83053e-11
3.225e-12
-1.95484e-12
4.88693e-11
-8.14547e-13
5.20376e-13
4.88002e-11
1.20993e-13
-9.7524e-14
4.88173e-11
-2.97183e-14
2.37102e-14
4.88133e-11
6.91495e-15
-5.59559e-15
4.8814e-11
-1.48105e-15
1.24758e-15
4.88135e-11
6.3007e-16
-5.18671e-16
4.8814e-11
-8.05983e-16
3.34806e-16
4.88115e-11
1.60883e-15
-1.33566e-15
4.88142e-11
-2.20192e-15
1.49929e-15
4.88107e-11
2.51016e-15
-1.9233e-15
4.88141e-11
-2.57627e-15
1.89e-15
4.88112e-11
2.23484e-15
-1.64112e-15
4.88139e-11
-1.8458e-15
1.48823e-15
4.8813e-11
1.00965e-15
-5.42796e-16
4.88137e-11
-5.03225e-16
3.68171e-16
4.88135e-11
2.67587e-16
-1.20481e-16
4.88139e-11
-2.83342e-16
2.4512e-16
2.90368e-16
-1.77205e-16
9.36698e-11
1.26869e-11
-2.61815e-11
9.64474e-11
1.83627e-12
-3.22498e-12
9.57119e-11
-4.46927e-13
8.14415e-13
9.58451e-11
5.45196e-14
-1.20869e-13
9.58145e-11
-1.46097e-14
2.96443e-14
9.5821e-11
3.65655e-15
-6.95673e-15
9.58195e-11
-8.15816e-16
1.46882e-15
9.582e-11
2.02619e-16
-7.95567e-16
9.58186e-11
-4.09404e-16
6.97008e-16
9.58187e-11
7.87898e-17
-2.68556e-15
9.58174e-11
-5.02213e-16
3.00393e-15
9.58182e-11
3.24847e-16
-3.8196e-15
9.58172e-11
-4.20557e-16
3.75919e-15
9.58183e-11
3.73468e-16
-3.26186e-15
9.58181e-11
-1.73069e-16
2.95859e-15
9.58194e-11
3.68706e-16
-1.12556e-15
9.58191e-11
-6.49847e-19
8.12983e-16
9.58196e-11
6.53296e-17
-3.31402e-16
9.58196e-11
1.14401e-17
4.92681e-16
5.32138e-17
-3.62095e-16
1.0574e-10
-1.26869e-11
-2.70352e-11
1.10852e-10
-1.8362e-12
-3.42743e-12
1.09572e-10
4.46763e-13
8.66695e-13
1.09748e-10
-5.43695e-14
-1.18795e-13
1.09704e-10
1.4488e-14
2.90227e-14
1.09714e-10
-3.65697e-15
-6.65258e-15
1.09712e-10
7.82917e-16
1.28714e-15
1.09712e-10
-4.15111e-16
-7.91893e-16
1.09711e-10
1.67359e-16
7.83737e-16
1.09711e-10
-1.35118e-15
-3.08895e-15
1.0971e-10
1.28418e-15
3.62931e-15
1.0971e-10
-1.79637e-15
-4.53672e-15
1.09709e-10
1.70781e-15
4.49432e-15
1.0971e-10
-1.46886e-15
-3.87896e-15
1.0971e-10
1.42025e-15
3.45002e-15
1.09712e-10
-3.58492e-16
-1.29035e-15
1.09711e-10
3.84065e-16
7.89643e-16
1.09712e-10
-1.03576e-16
-2.4041e-16
1.09712e-10
2.37208e-16
5.60188e-16
-1.46208e-16
-4.36301e-16
9.36698e-11
-2.61816e-11
-2.61816e-11
9.64474e-11
-3.22502e-12
-3.22503e-12
9.57119e-11
8.14515e-13
8.14518e-13
9.58451e-11
-1.20963e-13
-1.20964e-13
9.58145e-11
2.96675e-14
2.9673e-14
9.5821e-11
-6.9375e-15
-6.94195e-15
9.58195e-11
1.44134e-15
1.44247e-15
9.582e-11
-7.37845e-16
-7.38639e-16
9.58186e-11
7.35351e-16
7.39173e-16
9.58186e-11
-2.46891e-15
-2.48804e-15
9.58174e-11
2.86994e-15
2.90442e-15
9.58182e-11
-3.58874e-15
-3.61462e-15
9.58172e-11
3.53478e-15
3.57741e-15
9.58183e-11
-3.06427e-15
-3.08862e-15
9.58181e-11
2.69767e-15
2.73739e-15
9.58194e-11
-1.07464e-15
-1.07925e-15
9.58191e-11
6.88706e-16
6.87577e-16
9.58196e-11
-2.47373e-16
-2.52208e-16
9.58196e-11
4.2605e-16
4.26831e-16
-3.50584e-16
-3.43361e-16
5.06025e-11
-1.81726e-11
4.83053e-11
-1.95487e-12
4.88693e-11
5.20414e-13
4.88002e-11
-9.75647e-14
4.88173e-11
2.3751e-14
4.88133e-11
-5.59665e-15
4.8814e-11
1.2621e-15
4.88135e-11
-4.83711e-16
4.88139e-11
3.68256e-16
4.88115e-11
-1.09115e-15
4.88142e-11
1.29278e-15
4.88107e-11
-1.59859e-15
4.88141e-11
1.58647e-15
4.88112e-11
-1.37891e-15
4.88139e-11
1.21114e-15
4.8813e-11
-5.01694e-16
4.88137e-11
3.03966e-16
4.88135e-11
-1.15559e-16
4.88139e-11
1.93244e-16
-1.54918e-16
3.03348e-11
1.81726e-11
2.64251e-11
1.95491e-12
2.74659e-11
-5.20472e-13
2.72708e-11
9.76209e-14
2.73183e-11
-2.38155e-14
2.73071e-11
5.59129e-15
2.73096e-11
-1.29119e-15
2.73087e-11
4.16235e-16
2.73094e-11
-4.39316e-16
2.73072e-11
6.03162e-16
2.73098e-11
-8.97052e-16
2.73066e-11
9.70327e-16
2.73098e-11
-1.00005e-15
2.7307e-11
8.87473e-16
2.73095e-11
-6.76565e-16
2.73085e-11
4.52749e-16
2.73091e-11
-1.93256e-16
2.73088e-11
1.23758e-16
2.73092e-11
-9.63109e-17
1.10885e-16
5.06025e-11
8.0687e-12
4.83053e-11
1.02712e-12
4.88693e-11
-2.70084e-13
4.88002e-11
4.58595e-14
4.88173e-11
-1.13315e-14
4.88133e-11
2.63491e-15
4.8814e-11
-5.82906e-16
4.88135e-11
1.43229e-16
4.88139e-11
-2.51054e-16
4.88115e-11
7.11255e-17
4.88142e-11
-3.38805e-16
4.88107e-11
2.54303e-16
4.88141e-11
-2.98574e-16
4.88112e-11
2.63777e-16
4.88139e-11
-1.02024e-16
4.8813e-11
1.92466e-16
4.88137e-11
3.4965e-17
4.88135e-11
-1.20767e-17
4.88139e-11
8.67159e-18
3.95355e-17
5.57821e-11
-8.06858e-12
5.44088e-11
-1.02704e-12
5.47355e-11
2.6991e-13
5.47083e-11
-4.56962e-14
5.47147e-11
1.12315e-14
5.47133e-11
-2.65595e-15
5.47134e-11
5.78824e-16
5.4713e-11
-2.79871e-16
5.47134e-11
1.27698e-16
5.47109e-11
-8.27364e-16
5.47136e-11
8.86085e-16
5.471e-11
-1.16926e-15
5.47135e-11
1.14435e-15
5.47106e-11
-9.92494e-16
5.47133e-11
9.33196e-16
5.47125e-11
-2.92695e-16
5.47131e-11
2.24942e-16
5.4713e-11
-6.52223e-17
5.47134e-11
1.67701e-16
-1.10545e-16
5.06025e-11
-1.81726e-11
4.83053e-11
-1.95487e-12
4.88693e-11
5.20413e-13
4.88002e-11
-9.75632e-14
4.88173e-11
2.37515e-14
4.88133e-11
-5.59679e-15
4.8814e-11
1.26213e-15
4.88135e-11
-4.84381e-16
4.88139e-11
3.72325e-16
4.88115e-11
-1.09936e-15
4.88142e-11
1.30174e-15
4.88107e-11
-1.60546e-15
4.88141e-11
1.5936e-15
4.88112e-11
-1.3849e-15
4.88139e-11
1.21677e-15
4.8813e-11
-5.02607e-16
4.88137e-11
3.0734e-16
4.88135e-11
-1.18466e-16
4.88139e-11
1.93441e-16
-1.57294e-16
3.03348e-11
2.64251e-11
2.74659e-11
2.72708e-11
2.73183e-11
2.73071e-11
2.73096e-11
2.73087e-11
2.73094e-11
2.73072e-11
2.73098e-11
2.73066e-11
2.73098e-11
2.7307e-11
2.73095e-11
2.73085e-11
2.73091e-11
2.73088e-11
2.73092e-11
)
;

boundaryField
{
    inlet
    {
        type            calculated;
        value           nonuniform List<scalar> 
25
(
-6.668e-11
-6.668e-11
-6.668e-11
-6.668e-11
-6.668e-11
-6.668e-11
-6.668e-11
-6.668e-11
-6.668e-11
-6.668e-11
-6.668e-11
-6.668e-11
-6.668e-11
-6.668e-11
-6.668e-11
-6.668e-11
-6.668e-11
-6.668e-11
-6.668e-11
-6.668e-11
-6.668e-11
-6.668e-11
-6.668e-11
-6.668e-11
-6.668e-11
)
;
    }
    outlet
    {
        type            calculated;
        value           nonuniform List<scalar> 
25
(
2.73089e-11
4.88136e-11
5.47131e-11
4.88136e-11
2.73089e-11
4.88136e-11
9.58198e-11
1.09712e-10
9.58198e-11
4.88136e-11
5.47131e-11
1.09712e-10
1.26269e-10
1.09712e-10
5.47131e-11
4.88136e-11
9.58198e-11
1.09712e-10
9.58198e-11
4.88136e-11
2.73089e-11
4.88136e-11
5.47131e-11
4.88136e-11
2.73089e-11
)
;
    }
    Walls
    {
        type            calculated;
        value           uniform 0;
    }
}


// ************************************************************************* //
