/*--------------------------------*- C++ -*----------------------------------*\
  =========                 |
  \\      /  F ield         | OpenFOAM: The Open Source CFD Toolbox
   \\    /   O peration     | Website:  https://openfoam.org
    \\  /    A nd           | Version:  13
     \\/     M anipulation  |
\*---------------------------------------------------------------------------*/
FoamFile
{
    format      ascii;
    class       volVectorField;
    location    "33";
    object      U;
}
// * * * * * * * * * * * * * * * * * * * * * * * * * * * * * * * * * * * * * //

dimensions      [0 1 -1 0 0 0 0];

internalField   nonuniform List<vector> 
500
(
(0.0506196 0.000541955 0.000541955)
(0.0761903 7.98315e-05 7.98316e-05)
(0.0654411 -2.49781e-05 -2.49779e-05)
(0.0690038 6.18409e-06 6.18398e-06)
(0.0680922 -1.54037e-06 -1.54042e-06)
(0.0683166 3.70253e-07 3.70295e-07)
(0.0682628 -8.79692e-08 -8.80256e-08)
(0.0682744 2.62641e-08 2.63041e-08)
(0.068273 -1.8225e-08 -1.85558e-08)
(0.06827 2.87267e-08 2.86162e-08)
(0.0682718 -3.89416e-08 -3.86718e-08)
(0.0682703 4.38761e-08 4.34943e-08)
(0.0682704 -4.51534e-08 -4.45619e-08)
(0.0682714 3.9915e-08 3.96157e-08)
(0.0682699 -3.24424e-08 -3.19143e-08)
(0.068273 1.86882e-08 1.8877e-08)
(0.0682716 -9.28442e-09 -9.66776e-09)
(0.0682725 5.50346e-09 5.78866e-09)
(0.0682726 -5.42718e-09 -5.51036e-09)
(0.0682727 4.95154e-09 5.20017e-09)
(0.0882736 0.000763109 0.000771819)
(0.135084 9.03786e-05 0.00014475)
(0.117783 -2.14193e-05 -4.31772e-05)
(0.123119 2.97132e-06 9.60878e-06)
(0.121769 -7.35431e-07 -2.3299e-06)
(0.122099 1.71894e-07 5.42922e-07)
(0.12202 -3.69106e-08 -1.23898e-07)
(0.122037 1.52353e-08 4.80761e-08)
(0.122035 -1.82318e-08 -4.07918e-08)
(0.122031 3.54079e-08 1.08497e-07)
(0.122033 -5.16887e-08 -1.35579e-07)
(0.122031 5.59527e-08 1.56305e-07)
(0.122031 -5.98386e-08 -1.56544e-07)
(0.122032 5.00198e-08 1.40393e-07)
(0.12203 -4.33593e-08 -1.18615e-07)
(0.122035 2.22089e-08 5.49862e-08)
(0.122033 -9.52037e-09 -2.92632e-08)
(0.122034 5.57614e-09 1.69209e-08)
(0.122034 -6.36014e-09 -2.42936e-08)
(0.122034 6.58531e-09 1.6194e-08)
(0.0982033 1.4934e-09 0.000750347)
(0.151057 1.44144e-09 0.000154399)
(0.132313 -2.60117e-09 -4.63646e-05)
(0.137923 3.0568e-09 1.0122e-05)
(0.136504 -3.53413e-09 -2.43807e-06)
(0.136851 5.5189e-10 5.6218e-07)
(0.136768 -6.09977e-10 -1.25803e-07)
(0.136786 -3.11441e-09 5.07541e-08)
(0.136784 -3.1567e-09 -4.98265e-08)
(0.136779 -2.2856e-08 1.18896e-07)
(0.136782 1.65851e-08 -1.56072e-07)
(0.136779 -2.96875e-08 1.7592e-07)
(0.136779 2.4327e-08 -1.78886e-07)
(0.136781 -2.41519e-08 1.59052e-07)
(0.136779 2.21767e-08 -1.35081e-07)
(0.136783 -3.57663e-09 6.68379e-08)
(0.136782 6.05307e-09 -3.4204e-08)
(0.136783 -2.55429e-10 2.10356e-08)
(0.136783 4.60848e-09 -2.57284e-08)
(0.136783 -1.28598e-09 1.92544e-08)
(0.0882736 -0.000763107 0.00077182)
(0.135084 -9.03764e-05 0.000144752)
(0.117783 2.14156e-05 -4.31792e-05)
(0.123119 -2.96722e-06 9.61173e-06)
(0.121769 7.30857e-07 -2.3336e-06)
(0.122099 -1.71625e-07 5.42897e-07)
(0.12202 3.54804e-08 -1.23203e-07)
(0.122037 -1.99012e-08 4.54086e-08)
(0.122035 1.36773e-08 -4.26528e-08)
(0.12203 -7.02526e-08 9.40139e-08)
(0.122033 7.80988e-08 -1.23208e-07)
(0.122031 -1.01209e-07 1.38345e-07)
(0.122031 9.87294e-08 -1.40577e-07)
(0.122032 -8.62646e-08 1.24607e-07)
(0.12203 7.87108e-08 -1.03648e-07)
(0.122035 -2.71159e-08 5.20571e-08)
(0.122033 1.84847e-08 -2.62554e-08)
(0.122034 -5.72448e-09 1.56183e-08)
(0.122034 1.3006e-08 -1.983e-08)
(0.122034 -8.75512e-09 1.49665e-08)
(0.0506196 -0.000541954 0.000541956)
(0.0761903 -7.98308e-05 7.98331e-05)
(0.0654411 2.49771e-05 -2.4979e-05)
(0.0690038 -6.18316e-06 6.1851e-06)
(0.0680922 1.53914e-06 -1.54221e-06)
(0.0683166 -3.70424e-07 3.70684e-07)
(0.0682628 8.70264e-08 -8.86653e-08)
(0.0682744 -2.77701e-08 2.5468e-08)
(0.068273 1.66665e-08 -2.0167e-08)
(0.06827 -4.11401e-08 2.216e-08)
(0.0682718 4.91918e-08 -3.25199e-08)
(0.0682702 -6.01634e-08 3.48509e-08)
(0.0682704 6.02635e-08 -3.55298e-08)
(0.0682714 -5.25938e-08 3.27343e-08)
(0.0682699 4.59475e-08 -2.3785e-08)
(0.068273 -1.99564e-08 1.86484e-08)
(0.0682716 1.19887e-08 -8.96307e-09)
(0.0682725 -5.08149e-09 6.39421e-09)
(0.0682726 7.49835e-09 -3.99004e-09)
(0.0682727 -5.77843e-09 4.45475e-09)
(0.0882736 0.000771819 0.000763109)
(0.135084 0.00014475 9.03788e-05)
(0.117783 -4.31775e-05 -2.14188e-05)
(0.123119 9.60897e-06 2.97098e-06)
(0.121769 -2.32983e-06 -7.3541e-07)
(0.122099 5.42856e-07 1.71905e-07)
(0.12202 -1.23787e-07 -3.70677e-08)
(0.122037 4.80032e-08 1.5345e-08)
(0.122035 -4.01993e-08 -1.91067e-08)
(0.122031 1.09039e-07 3.38229e-08)
(0.122033 -1.36566e-07 -4.87533e-08)
(0.122031 1.57256e-07 5.36131e-08)
(0.122031 -1.58158e-07 -5.57319e-08)
(0.122032 1.4114e-07 4.80198e-08)
(0.12203 -1.20074e-07 -3.95663e-08)
(0.122035 5.44849e-08 2.29564e-08)
(0.122033 -2.85255e-08 -1.07628e-08)
(0.122034 1.64483e-08 6.22454e-09)
(0.122034 -2.41573e-08 -6.54183e-09)
(0.122034 1.56797e-08 7.60485e-09)
(0.168702 0.00118038 0.00118038)
(0.263076 0.000168761 0.000168761)
(0.233133 -3.66447e-05 -3.66442e-05)
(0.241174 3.15345e-06 3.15317e-06)
(0.239152 -9.17362e-07 -9.16995e-07)
(0.239646 2.36101e-07 2.35804e-07)
(0.239527 -4.95789e-08 -4.96376e-08)
(0.239554 1.8412e-08 1.84058e-08)
(0.239549 -2.94856e-08 -2.97974e-08)
(0.239544 3.04302e-08 2.76118e-08)
(0.239547 -5.55807e-08 -5.10988e-08)
(0.239544 5.74759e-08 5.40098e-08)
(0.239544 -6.44037e-08 -5.84205e-08)
(0.239545 5.1738e-08 4.88322e-08)
(0.239543 -4.18548e-08 -3.64208e-08)
(0.239549 3.13784e-08 3.21465e-08)
(0.239547 -1.23822e-08 -1.33688e-08)
(0.239548 7.45339e-09 7.47487e-09)
(0.239549 -2.19145e-09 -2.22668e-09)
(0.239549 8.5067e-09 9.75142e-09)
(0.191631 5.46801e-09 0.00125063)
(0.300539 5.67796e-10 0.000185985)
(0.267645 -6.32277e-09 -3.97668e-05)
(0.275974 5.53766e-09 2.72866e-06)
(0.273864 -1.84003e-09 -8.56498e-07)
(0.274382 -2.32201e-09 2.22378e-07)
(0.274257 -3.10054e-10 -4.34172e-08)
(0.274285 -6.42789e-09 1.84098e-08)
(0.274281 -2.11901e-09 -3.41176e-08)
(0.274275 -4.19859e-08 3.98977e-08)
(0.274277 2.90997e-08 -7.11635e-08)
(0.274274 -5.03039e-08 7.63761e-08)
(0.274274 4.26644e-08 -8.03365e-08)
(0.274276 -3.91249e-08 6.9266e-08)
(0.274274 3.97679e-08 -4.98667e-08)
(0.274279 -5.27123e-09 3.98656e-08)
(0.274278 1.36412e-08 -1.34292e-08)
(0.274279 -3.66015e-09 6.19837e-09)
(0.27428 7.36543e-09 -5.74232e-09)
(0.27428 -2.13644e-09 1.29482e-08)
(0.168702 -0.00118037 0.00118038)
(0.263076 -0.000168757 0.000168759)
(0.233133 3.66355e-05 -3.66435e-05)
(0.241174 -3.14541e-06 3.15259e-06)
(0.239152 9.10981e-07 -9.15505e-07)
(0.239646 -2.37538e-07 2.36149e-07)
(0.239527 4.93819e-08 -4.98927e-08)
(0.239554 -2.83917e-08 1.835e-08)
(0.239549 2.25231e-08 -3.21222e-08)
(0.239544 -9.58192e-08 3.15152e-08)
(0.239547 1.00534e-07 -5.64232e-08)
(0.239544 -1.35713e-07 5.9925e-08)
(0.239544 1.30001e-07 -6.17839e-08)
(0.239545 -1.12784e-07 5.46263e-08)
(0.239543 1.02849e-07 -3.75743e-08)
(0.239549 -3.66767e-08 3.45102e-08)
(0.239547 2.99966e-08 -1.23003e-08)
(0.239548 -9.95541e-09 6.98949e-09)
(0.239549 1.52419e-08 -3.12722e-09)
(0.239549 -1.2182e-08 9.51869e-09)
(0.0882736 -0.000771816 0.000763113)
(0.135084 -0.000144749 9.03791e-05)
(0.117783 4.31757e-05 -2.14221e-05)
(0.123119 -9.60815e-06 2.97409e-06)
(0.121769 2.32926e-06 -7.35927e-07)
(0.122099 -5.43092e-07 1.70553e-07)
(0.12202 1.21048e-07 -3.67589e-08)
(0.122037 -4.977e-08 1.30664e-08)
(0.122035 3.74248e-08 -1.92576e-08)
(0.12203 -1.2761e-07 2.45985e-08)
(0.122033 1.51098e-07 -4.02735e-08)
(0.122031 -1.81293e-07 4.26559e-08)
(0.122031 1.81788e-07 -4.31499e-08)
(0.122032 -1.57973e-07 3.89442e-08)
(0.12203 1.41038e-07 -2.66902e-08)
(0.122035 -5.3957e-08 2.00556e-08)
(0.122033 3.26475e-08 -5.95315e-09)
(0.122034 -1.45944e-08 3.035e-09)
(0.122034 2.59839e-08 -3.9761e-09)
(0.122034 -1.70229e-08 5.87896e-09)
(0.0982033 0.000750347 1.70193e-09)
(0.151057 0.000154399 9.95407e-10)
(0.132313 -4.63647e-05 -2.25504e-09)
(0.137923 1.01222e-05 2.81836e-09)
(0.136504 -2.43819e-06 -3.08427e-09)
(0.136851 5.62275e-07 1.7387e-10)
(0.136768 -1.25872e-07 -5.61681e-10)
(0.136786 5.07712e-08 -3.1667e-09)
(0.136784 -4.97995e-08 -3.05613e-09)
(0.136779 1.17054e-07 -2.50298e-08)
(0.136782 -1.52764e-07 2.03621e-08)
(0.136779 1.74043e-07 -3.264e-08)
(0.136779 -1.75704e-07 2.9161e-08)
(0.136781 1.57133e-07 -2.68289e-08)
(0.136779 -1.32007e-07 2.66022e-08)
(0.136783 6.6717e-08 -3.71173e-09)
(0.136782 -3.41276e-08 5.63397e-09)
(0.136783 2.10485e-08 -4.64744e-10)
(0.136783 -2.56326e-08 4.63839e-09)
(0.136783 1.90106e-08 -4.3278e-10)
(0.191631 0.00125063 5.15765e-09)
(0.300539 0.000185985 8.67399e-10)
(0.267645 -3.97674e-05 -5.7293e-09)
(0.275974 2.72897e-06 5.03154e-09)
(0.273864 -8.56656e-07 -1.85109e-09)
(0.274382 2.22503e-07 -2.20868e-09)
(0.274257 -4.31971e-08 -5.96594e-10)
(0.274285 1.83308e-08 -6.1538e-09)
(0.274281 -3.33675e-08 -3.55242e-09)
(0.274275 4.41187e-08 -4.27163e-08)
(0.274277 -7.80938e-08 3.11002e-08)
(0.274274 8.13389e-08 -5.1029e-08)
(0.274274 -8.90458e-08 4.59346e-08)
(0.274276 7.35079e-08 -3.94524e-08)
(0.274274 -5.78471e-08 4.29039e-08)
(0.274279 3.8529e-08 -3.13414e-09)
(0.274278 -1.18977e-08 1.15838e-08)
(0.274279 5.82099e-09 -2.68509e-09)
(0.27428 -5.67268e-09 7.06898e-09)
(0.27428 1.15006e-08 -5.93057e-10)
(0.218783 2.76317e-09 3.06555e-09)
(0.345121 3.64976e-09 2.98734e-09)
(0.308899 -7.74051e-09 -7.20819e-09)
(0.317426 6.82843e-09 6.49418e-09)
(0.315237 -4.96206e-09 -4.33259e-09)
(0.315778 -6.3381e-10 -1.10624e-09)
(0.315648 -7.17533e-10 -7.42474e-10)
(0.315677 -7.76521e-09 -7.78528e-09)
(0.315672 -8.12544e-09 -8.18986e-09)
(0.315667 -4.77233e-08 -5.10193e-08)
(0.315668 2.94515e-08 3.49057e-08)
(0.315665 -5.47546e-08 -5.85967e-08)
(0.315665 4.63348e-08 5.34715e-08)
(0.315667 -4.14287e-08 -4.46604e-08)
(0.315665 4.47552e-08 5.1264e-08)
(0.315671 -4.95405e-10 4.02621e-10)
(0.31567 1.35899e-08 1.25236e-08)
(0.315671 -1.6116e-09 -1.86325e-09)
(0.315672 9.40778e-09 9.38628e-09)
(0.315672 -2.6168e-09 -1.03862e-09)
(0.191631 -0.00125062 2.12459e-09)
(0.300539 -0.000185987 1.5661e-09)
(0.267645 3.97559e-05 -4.8019e-09)
(0.275974 -2.7182e-06 4.45825e-09)
(0.273864 8.53598e-07 -3.05831e-09)
(0.274382 -2.28769e-07 -5.29619e-10)
(0.274257 4.44977e-08 -8.74677e-10)
(0.274285 -3.23343e-08 -6.11499e-09)
(0.274281 2.92163e-08 -7.21012e-09)
(0.274275 -1.27005e-07 -3.82899e-08)
(0.274277 1.35185e-07 2.55391e-08)
(0.274274 -1.77142e-07 -4.41055e-08)
(0.274274 1.71401e-07 4.10314e-08)
(0.274276 -1.48524e-07 -3.31073e-08)
(0.274274 1.36717e-07 3.98111e-08)
(0.274279 -4.8817e-08 1.0042e-09)
(0.274278 3.97586e-08 1.002e-08)
(0.274279 -1.55655e-08 -1.33783e-09)
(0.27428 2.19869e-08 6.99518e-09)
(0.27428 -1.667e-08 -1.19256e-09)
(0.0982033 -0.000750348 2.74201e-09)
(0.151057 -0.00015439 1.44512e-09)
(0.132313 4.63663e-05 -4.81326e-09)
(0.137923 -1.01247e-05 4.65807e-09)
(0.136504 2.43014e-06 -1.96993e-09)
(0.136851 -5.5553e-07 -1.42342e-09)
(0.136768 1.19403e-07 2.91377e-10)
(0.136786 -4.98511e-08 -4.13078e-09)
(0.136784 3.70403e-08 -2.8739e-09)
(0.136779 -1.31744e-07 -2.33422e-08)
(0.136782 1.62954e-07 1.84814e-08)
(0.136779 -1.95869e-07 -2.80429e-08)
(0.136779 1.96373e-07 2.75326e-08)
(0.136781 -1.69864e-07 -2.27591e-08)
(0.136779 1.47262e-07 2.71702e-08)
(0.136783 -5.48689e-08 -3.57019e-09)
(0.136782 2.65935e-08 7.81076e-09)
(0.136783 -6.4888e-09 -3.25569e-09)
(0.136783 2.68483e-08 5.16564e-09)
(0.136783 -1.96986e-08 -1.30891e-09)
(0.0882736 0.000771821 -0.000763107)
(0.135084 0.00014475 -9.03768e-05)
(0.117783 -4.31796e-05 2.14156e-05)
(0.123119 9.61224e-06 -2.96721e-06)
(0.121769 -2.3327e-06 7.31136e-07)
(0.122099 5.42119e-07 -1.71883e-07)
(0.12202 -1.22746e-07 3.56199e-08)
(0.122037 4.49988e-08 -1.99803e-08)
(0.122035 -4.02594e-08 1.41937e-08)
(0.12203 9.09666e-08 -7.01316e-08)
(0.122033 -1.18563e-07 7.80267e-08)
(0.122031 1.34722e-07 -1.01096e-07)
(0.122031 -1.36264e-07 9.86047e-08)
(0.122032 1.20777e-07 -8.62457e-08)
(0.12203 -9.96527e-08 7.85999e-08)
(0.122035 4.93346e-08 -2.76462e-08)
(0.122033 -2.40975e-08 1.89021e-08)
(0.122034 1.35459e-08 -6.19368e-09)
(0.122034 -1.93265e-08 1.31352e-08)
(0.122034 1.43364e-08 -8.77406e-09)
(0.168702 0.00118037 -0.00118037)
(0.263076 0.00016876 -0.000168758)
(0.233133 -3.66437e-05 3.66356e-05)
(0.241174 3.15257e-06 -3.14537e-06)
(0.239152 -9.16075e-07 9.11561e-07)
(0.239646 2.36623e-07 -2.37991e-07)
(0.239527 -4.99416e-08 4.95065e-08)
(0.239554 1.84969e-08 -2.85267e-08)
(0.239549 -3.25856e-08 2.33337e-08)
(0.239544 3.56874e-08 -9.85097e-08)
(0.239547 -6.28394e-08 1.051e-07)
(0.239544 6.49866e-08 -1.39049e-07)
(0.239544 -6.95955e-08 1.35106e-07)
(0.239545 5.91403e-08 -1.15993e-07)
(0.239543 -4.4692e-08 1.07574e-07)
(0.239549 3.4633e-08 -3.7488e-08)
(0.239547 -1.2066e-08 3.02598e-08)
(0.239548 7.64187e-09 -1.07427e-08)
(0.239549 -3.26489e-09 1.53753e-08)
(0.239549 8.6173e-09 -1.17398e-08)
(0.191631 2.43795e-09 -0.00125062)
(0.300539 1.26059e-09 -0.000185987)
(0.267645 -5.4043e-09 3.97562e-05)
(0.275974 4.97056e-09 -2.71827e-06)
(0.273864 -3.04329e-09 8.54234e-07)
(0.274382 -6.44853e-10 -2.2929e-07)
(0.274257 -5.82436e-10 4.46298e-08)
(0.274285 -6.39109e-09 -3.24507e-08)
(0.274281 -5.75231e-09 2.98025e-08)
(0.274275 -3.75199e-08 -1.2922e-07)
(0.274277 2.34873e-08 1.38914e-07)
(0.274274 -4.33387e-08 -1.79939e-07)
(0.274274 3.76802e-08 1.75915e-07)
(0.274276 -3.27553e-08 -1.51116e-07)
(0.274274 3.66028e-08 1.40904e-07)
(0.274279 -1.17412e-09 -4.9299e-08)
(0.274278 1.21046e-08 3.97983e-08)
(0.274279 -2.32863e-09 -1.62686e-08)
(0.27428 7.2944e-09 2.20958e-08)
(0.27428 -2.75624e-09 -1.59639e-08)
(0.168702 -0.00118037 -0.00118037)
(0.263076 -0.000168764 -0.000168764)
(0.233133 3.66365e-05 3.66367e-05)
(0.241174 -3.14523e-06 -3.1454e-06)
(0.239152 9.15277e-07 9.15625e-07)
(0.239646 -2.4233e-07 -2.42575e-07)
(0.239527 5.14327e-08 5.14477e-08)
(0.239554 -2.99538e-08 -2.99472e-08)
(0.239549 2.79938e-08 2.80177e-08)
(0.239544 -1.00232e-07 -1.01417e-07)
(0.239547 1.06238e-07 1.0858e-07)
(0.239544 -1.38438e-07 -1.39973e-07)
(0.239544 1.34216e-07 1.37228e-07)
(0.239545 -1.16209e-07 -1.17599e-07)
(0.239543 1.08186e-07 1.11002e-07)
(0.239549 -4.21129e-08 -4.19837e-08)
(0.239547 3.53811e-08 3.49237e-08)
(0.239548 -1.62731e-08 -1.64164e-08)
(0.239549 1.62563e-08 1.62466e-08)
(0.239549 -1.29028e-08 -1.2171e-08)
(0.0882736 -0.000771819 -0.000763108)
(0.135084 -0.000144744 -9.03761e-05)
(0.117783 4.31811e-05 2.14166e-05)
(0.123119 -9.61425e-06 -2.96877e-06)
(0.121769 2.32608e-06 7.3177e-07)
(0.122099 -5.3665e-07 -1.71342e-07)
(0.12202 1.17377e-07 3.57193e-08)
(0.122037 -4.46773e-08 -1.84043e-08)
(0.122035 3.23308e-08 1.36652e-08)
(0.12203 -1.06531e-07 -5.94105e-08)
(0.122033 1.31975e-07 6.84596e-08)
(0.122031 -1.58829e-07 -8.62874e-08)
(0.122031 1.58581e-07 8.55007e-08)
(0.122032 -1.37046e-07 -7.35615e-08)
(0.12203 1.1589e-07 6.67723e-08)
(0.122035 -4.28651e-08 -2.35501e-08)
(0.122033 1.92405e-08 1.48022e-08)
(0.122034 -2.65194e-09 -4.40072e-09)
(0.122034 2.08501e-08 1.11516e-08)
(0.122034 -1.58659e-08 -8.01156e-09)
(0.0506196 0.000541956 -0.000541954)
(0.0761903 7.98329e-05 -7.98307e-05)
(0.0654411 -2.49792e-05 2.49771e-05)
(0.0690038 6.18523e-06 -6.18313e-06)
(0.0680922 -1.54216e-06 1.53903e-06)
(0.0683166 3.70642e-07 -3.70333e-07)
(0.0682628 -8.85859e-08 8.70228e-08)
(0.0682744 2.54171e-08 -2.77292e-08)
(0.068273 -1.97908e-08 1.65737e-08)
(0.06827 2.24081e-08 -4.02443e-08)
(0.0682718 -3.29725e-08 4.78853e-08)
(0.0682702 3.52577e-08 -5.89516e-08)
(0.0682704 -3.63366e-08 5.86649e-08)
(0.0682714 3.30047e-08 -5.15103e-08)
(0.0682699 -2.44982e-08 4.45358e-08)
(0.068273 1.82345e-08 -1.98175e-08)
(0.0682716 -8.48947e-09 1.20135e-08)
(0.0682725 6.08235e-09 -5.0081e-09)
(0.0682726 -3.89937e-09 7.50456e-09)
(0.0682727 4.1474e-09 -5.91531e-09)
(0.0882736 0.000763113 -0.000771817)
(0.135084 9.03792e-05 -0.000144748)
(0.117783 -2.14224e-05 4.31758e-05)
(0.123119 2.97431e-06 -9.6084e-06)
(0.121769 -7.36088e-07 2.32833e-06)
(0.122099 1.70673e-07 -5.42285e-07)
(0.12202 -3.67005e-08 1.20736e-07)
(0.122037 1.30484e-08 -4.93932e-08)
(0.122035 -1.89937e-08 3.55817e-08)
(0.12203 2.61058e-08 -1.22659e-07)
(0.122033 -4.28584e-08 1.43558e-07)
(0.122031 4.46689e-08 -1.75105e-07)
(0.122031 -4.65669e-08 1.73538e-07)
(0.122032 4.06822e-08 -1.52033e-07)
(0.12203 -2.97803e-08 1.33554e-07)
(0.122035 1.97027e-08 -5.18785e-08)
(0.122033 -5.30044e-09 3.13779e-08)
(0.122034 2.85908e-09 -1.29641e-08)
(0.122034 -3.90819e-09 2.56359e-08)
(0.122034 5.18289e-09 -1.71273e-08)
(0.0982033 2.54343e-09 -0.000750349)
(0.151057 1.88756e-09 -0.000154389)
(0.132313 -5.06839e-09 4.63664e-05)
(0.137923 4.82069e-09 -1.01249e-05)
(0.136504 -2.39353e-09 2.42955e-06)
(0.136851 -1.07954e-09 -5.55005e-07)
(0.136768 2.14687e-10 1.19169e-07)
(0.136786 -4.07708e-09 -4.96196e-08)
(0.136784 -3.08493e-09 3.58674e-08)
(0.136779 -2.16652e-08 -1.2971e-07)
(0.136782 1.54519e-08 1.59993e-07)
(0.136779 -2.57436e-08 -1.93286e-07)
(0.136779 2.37159e-08 1.93237e-07)
(0.136781 -2.06158e-08 -1.67326e-07)
(0.136779 2.3641e-08 1.44377e-07)
(0.136783 -3.28753e-09 -5.34892e-08)
(0.136782 8.03317e-09 2.55894e-08)
(0.136783 -2.96172e-09 -5.39213e-09)
(0.136783 5.11275e-09 2.66291e-08)
(0.136783 -1.98132e-09 -1.96007e-08)
(0.0882736 -0.000763108 -0.00077182)
(0.135084 -9.0376e-05 -0.000144743)
(0.117783 2.14165e-05 4.31812e-05)
(0.123119 -2.96866e-06 -9.61431e-06)
(0.121769 7.3164e-07 2.32601e-06)
(0.122099 -1.71223e-07 -5.36604e-07)
(0.12202 3.56799e-08 1.17362e-07)
(0.122037 -1.84189e-08 -4.46325e-08)
(0.122035 1.3768e-08 3.20928e-08)
(0.12203 -5.94946e-08 -1.05957e-07)
(0.122033 6.82473e-08 1.3124e-07)
(0.122031 -8.61319e-08 -1.58236e-07)
(0.122031 8.50116e-08 1.57866e-07)
(0.122032 -7.33736e-08 -1.36504e-07)
(0.12203 6.6246e-08 1.15277e-07)
(0.122035 -2.34284e-08 -4.27357e-08)
(0.122033 1.49727e-08 1.90619e-08)
(0.122034 -4.40831e-09 -2.47337e-09)
(0.122034 1.1136e-08 2.08299e-08)
(0.122034 -8.30807e-09 -1.57895e-08)
(0.0506196 -0.000541954 -0.000541954)
(0.0761903 -7.98311e-05 -7.9831e-05)
(0.0654411 2.49779e-05 2.49779e-05)
(0.0690038 -6.18414e-06 -6.18418e-06)
(0.0680922 1.53984e-06 1.53977e-06)
(0.0683166 -3.70037e-07 -3.69983e-07)
(0.0682628 8.72548e-08 8.72385e-08)
(0.0682744 -2.67453e-08 -2.67111e-08)
(0.068273 1.74992e-08 1.73084e-08)
(0.06827 -3.4454e-08 -3.39853e-08)
(0.0682718 4.32257e-08 4.25908e-08)
(0.0682702 -5.13663e-08 -5.08726e-08)
(0.0682704 5.15561e-08 5.09087e-08)
(0.0682714 -4.53644e-08 -4.49137e-08)
(0.0682699 3.77643e-08 3.7196e-08)
(0.068273 -1.85895e-08 -1.84896e-08)
(0.0682716 1.0118e-08 9.99297e-09)
(0.0682725 -4.58394e-09 -4.42441e-09)
(0.0682726 6.10137e-09 6.08357e-09)
(0.0682727 -5.35099e-09 -5.33062e-09)
)
;

boundaryField
{
    inlet
    {
        type            fixedValue;
        value           uniform (0.1667 0 0);
    }
    outlet
    {
        type            zeroGradient;
    }
    Walls
    {
        type            noSlip;
    }
}


// ************************************************************************* //
