/*--------------------------------*- C++ -*----------------------------------*\
  =========                 |
  \\      /  F ield         | OpenFOAM: The Open Source CFD Toolbox
   \\    /   O peration     | Website:  https://openfoam.org
    \\  /    A nd           | Version:  13
     \\/     M anipulation  |
\*---------------------------------------------------------------------------*/
FoamFile
{
    format      ascii;
    class       surfaceScalarField;
    location    "29";
    object      phi;
}
// * * * * * * * * * * * * * * * * * * * * * * * * * * * * * * * * * * * * * //

dimensions      [0 3 -1 0 0 0 0];

internalField   nonuniform List<scalar> 
10260
(
2.78337e-13
6.94332e-13
6.94332e-13
2.17446e-13
3.0446e-14
3.0446e-14
2.53211e-13
-1.78826e-14
-1.78829e-14
2.31835e-13
1.06882e-14
1.06884e-14
2.44698e-13
-6.43106e-15
-6.43133e-15
2.36963e-13
3.87174e-15
3.87185e-15
2.41608e-13
-2.33341e-15
-2.33304e-15
2.38854e-13
1.38671e-15
1.38623e-15
2.40448e-13
-8.01187e-16
-8.01357e-16
2.39551e-13
4.50099e-16
4.50384e-16
2.40036e-13
-2.42982e-16
-2.43352e-16
2.39785e-13
1.26061e-16
1.26437e-16
2.39909e-13
-6.28153e-17
-6.28924e-17
2.39848e-13
2.89138e-17
2.91419e-17
2.39878e-13
-1.4301e-17
-1.43788e-17
2.39862e-13
8.12227e-18
8.12504e-18
2.39873e-13
-5.39364e-18
-5.38399e-18
2.39865e-13
3.92163e-18
3.91094e-18
2.39871e-13
-3.08388e-18
-3.06443e-18
2.39866e-13
2.52349e-18
2.50124e-18
2.3987e-13
-1.9154e-18
-1.89049e-18
2.39869e-13
6.72655e-19
6.49215e-19
2.39869e-13
-1.26118e-19
-1.13426e-19
2.3987e-13
-5.97158e-19
-6.1101e-19
2.39868e-13
1.1978e-18
1.20404e-18
2.39871e-13
-1.62424e-18
-1.63095e-18
2.39867e-13
1.80052e-18
1.80675e-18
2.39874e-13
-3.41687e-18
-3.41926e-18
2.39868e-13
2.97926e-18
2.98479e-18
2.39877e-13
-4.32064e-18
-4.34637e-18
2.39868e-13
4.29482e-18
4.32398e-18
2.39882e-13
-5.90628e-18
-5.94345e-18
2.39865e-13
7.87447e-18
7.90706e-18
2.39878e-13
-6.12919e-18
-6.17937e-18
2.39862e-13
7.39919e-18
7.44099e-18
2.39878e-13
-6.43153e-18
-6.46843e-18
9.37948e-18
9.34115e-18
5.29833e-13
7.40716e-13
1.09078e-12
4.68812e-13
3.91608e-14
5.23096e-14
5.04209e-13
-2.28497e-14
-3.04303e-14
4.8321e-13
1.35984e-14
1.80899e-14
4.95848e-13
-8.19077e-15
-1.08772e-14
4.88254e-13
4.95703e-15
6.53451e-15
4.92809e-13
-3.03128e-15
-3.92075e-15
4.90116e-13
1.82266e-15
2.3128e-15
4.91667e-13
-1.0543e-15
-1.32219e-15
4.90801e-13
5.94436e-16
7.32041e-16
4.91263e-13
-3.21959e-16
-3.87753e-16
4.91028e-13
1.68952e-16
1.96277e-16
4.9114e-13
-8.57625e-17
-9.45234e-17
4.91084e-13
3.51554e-17
4.25883e-17
4.91111e-13
-1.76435e-17
-2.12567e-17
4.91098e-13
9.79529e-18
1.27327e-17
4.91109e-13
-6.34546e-18
-9.3292e-18
4.911e-13
4.31119e-18
7.31745e-18
4.91107e-13
-3.38542e-18
-5.7535e-18
4.91102e-13
3.0426e-18
4.83374e-18
4.91106e-13
-2.39016e-18
-3.75188e-18
4.91105e-13
1.50455e-19
1.60294e-18
4.91105e-13
4.82835e-19
-8.0538e-19
4.91106e-13
-1.25399e-18
-6.5581e-19
4.91104e-13
1.95791e-18
1.80383e-18
4.91107e-13
-2.33726e-18
-2.69829e-18
4.91104e-13
2.17576e-18
2.99432e-18
4.91111e-13
-4.61928e-18
-6.35792e-18
4.91105e-13
3.5491e-18
5.2907e-18
4.91115e-13
-4.81468e-18
-8.52384e-18
4.91106e-13
4.28817e-18
8.36506e-18
4.91122e-13
-3.72665e-18
-1.24995e-17
4.91102e-13
6.33348e-18
1.70737e-17
4.91116e-13
-3.09066e-18
-1.3573e-17
4.91098e-13
5.19745e-18
1.65454e-17
4.91116e-13
-1.17323e-18
-1.48464e-17
6.55747e-18
2.05594e-17
6.71352e-13
5.68325e-13
1.16804e-12
6.19566e-13
3.20012e-14
5.89498e-14
6.49543e-13
-1.86038e-14
-3.42232e-14
6.31841e-13
1.10272e-14
2.02737e-14
6.42492e-13
-6.64882e-15
-1.21917e-14
6.36105e-13
4.03751e-15
7.33226e-15
6.39913e-13
-2.49242e-15
-4.41072e-15
6.37678e-13
1.51161e-15
2.60107e-15
6.38956e-13
-8.74831e-16
-1.48114e-15
6.38252e-13
4.93791e-16
8.15671e-16
6.38621e-13
-2.67503e-16
-4.29193e-16
6.38438e-13
1.40582e-16
2.15568e-16
6.38523e-13
-7.17263e-17
-1.03899e-16
6.3848e-13
2.70171e-17
4.3973e-17
6.38501e-13
-1.37023e-17
-2.18093e-17
6.3849e-13
7.26348e-18
1.43556e-17
6.38499e-13
-4.73586e-18
-1.05922e-17
6.38492e-13
3.15201e-18
8.18186e-18
6.38498e-13
-2.45773e-18
-6.58982e-18
6.38493e-13
2.41644e-18
5.54789e-18
6.38497e-13
-1.96465e-18
-4.36667e-18
6.38495e-13
-3.9463e-19
1.84428e-18
6.38496e-13
7.64168e-19
-7.83527e-19
6.38497e-13
-1.46e-18
-6.79438e-19
6.38495e-13
1.97203e-18
2.09555e-18
6.38498e-13
-2.12191e-18
-3.17944e-18
6.38495e-13
1.52194e-18
3.66474e-18
6.38502e-13
-4.40497e-18
-7.07129e-18
6.38496e-13
2.58117e-18
6.20919e-18
6.38506e-13
-4.18412e-18
-8.95341e-18
6.38497e-13
2.56237e-18
9.67036e-18
6.38513e-13
-1.53142e-18
-1.29032e-17
6.38492e-13
4.39132e-18
1.78596e-17
6.38508e-13
3.82479e-19
-1.49172e-17
6.38489e-13
2.17302e-18
1.81237e-17
6.38509e-13
2.88318e-18
-1.50441e-17
3.04545e-18
2.22268e-17
7.52862e-13
3.02549e-13
1.17991e-12
7.06703e-13
1.74725e-14
6.06924e-14
7.33556e-13
-1.01429e-14
-3.5315e-14
7.1771e-13
5.99365e-15
2.08804e-14
7.27241e-13
-3.61413e-15
-1.25646e-14
7.21536e-13
2.1995e-15
7.5685e-15
7.24916e-13
-1.3653e-15
-4.57089e-15
7.22946e-13
8.32746e-16
2.70407e-15
7.24067e-13
-4.79501e-16
-1.54141e-15
7.23454e-13
2.68837e-16
8.49882e-16
7.23774e-13
-1.45669e-16
-4.4694e-16
7.23618e-13
7.57032e-17
2.24817e-16
7.23689e-13
-3.95694e-17
-1.0806e-16
7.23652e-13
1.3098e-17
4.435e-17
7.2367e-13
-7.1552e-18
-2.17152e-17
7.23659e-13
3.52703e-18
1.44167e-17
7.23669e-13
-2.41426e-18
-1.06716e-17
7.23661e-13
1.64557e-18
8.16602e-18
7.23668e-13
-1.25419e-18
-6.60451e-18
7.23663e-13
1.40075e-18
5.61067e-18
7.23667e-13
-1.19502e-18
-4.43433e-18
7.23665e-13
-3.66426e-19
1.48299e-18
7.23666e-13
4.32496e-19
-4.11436e-19
7.23666e-13
-8.82718e-19
-1.11429e-18
7.23664e-13
1.17359e-18
2.54182e-18
7.23667e-13
-1.16963e-18
-3.5831e-18
7.23664e-13
6.35765e-19
3.78154e-18
7.2367e-13
-2.82589e-18
-7.71493e-18
7.23665e-13
1.28626e-18
6.23558e-18
7.23674e-13
-2.65718e-18
-9.18839e-18
7.23665e-13
1.13893e-18
9.27168e-18
7.23681e-13
-3.3703e-19
-1.2156e-17
7.23661e-13
2.68329e-18
1.74932e-17
7.23677e-13
1.233e-18
-1.33108e-17
7.23658e-13
7.73719e-19
1.70178e-17
7.23679e-13
2.92151e-18
-1.26391e-17
7.48955e-19
2.12599e-17
7.90544e-13
3.72325e-18
1.179e-12
7.47072e-13
-7.0398e-19
6.09493e-14
7.72478e-13
2.20137e-18
-3.55517e-14
7.57476e-13
-1.16989e-18
2.09977e-14
7.66497e-13
1.83216e-18
-1.26361e-14
7.61103e-13
7.52019e-18
7.61084e-15
7.64286e-13
-8.95498e-18
-4.60322e-15
7.62438e-13
7.2234e-18
2.72853e-15
7.63488e-13
1.20473e-18
-1.55604e-15
7.62916e-13
-5.97263e-18
8.59747e-16
7.63214e-13
2.79179e-18
-4.52012e-16
7.6307e-13
-3.8676e-18
2.28124e-16
7.63135e-13
-2.41635e-19
-1.09546e-16
7.631e-13
-3.14082e-18
4.48811e-17
7.63117e-13
6.91632e-19
-2.21e-17
7.63107e-13
-4.07269e-19
1.42625e-17
7.63116e-13
-8.09997e-22
-1.04864e-17
7.63109e-13
4.52594e-20
8.08505e-18
7.63115e-13
-2.689e-20
-6.47882e-18
7.6311e-13
1.60249e-19
5.65095e-18
7.63114e-13
-1.36445e-19
-4.55202e-18
7.63112e-13
2.14221e-20
1.24122e-18
7.63113e-13
5.23239e-21
-4.40057e-19
7.63113e-13
5.46359e-20
-1.28504e-18
7.63112e-13
1.01627e-19
2.60574e-18
7.63114e-13
-9.10271e-20
-3.5261e-18
7.63111e-13
2.43473e-19
3.2504e-18
7.63117e-13
-1.59198e-19
-8.34054e-18
7.63112e-13
2.51383e-19
5.84341e-18
7.6312e-13
1.58356e-19
-1.00806e-17
7.63112e-13
2.9576e-19
8.67558e-18
7.63128e-13
1.06898e-18
-1.24878e-17
7.63108e-13
-5.17483e-19
1.87432e-17
7.63125e-13
4.24971e-19
-1.22561e-17
7.63105e-13
-3.15285e-19
1.6933e-17
7.63127e-13
1.26357e-18
-1.18873e-17
-2.28325e-18
2.2166e-17
7.90544e-13
-3.02544e-13
1.179e-12
7.47072e-13
-1.74738e-14
6.09495e-14
7.72478e-13
1.01472e-14
-3.55519e-14
7.57476e-13
-5.99596e-15
2.09979e-14
7.66497e-13
3.61765e-15
-1.26362e-14
7.61103e-13
-2.18517e-15
7.61084e-15
7.64286e-13
1.34636e-15
-4.60234e-15
7.62438e-13
-8.16947e-16
2.72749e-15
7.63488e-13
4.80829e-16
-1.55587e-15
7.62916e-13
-2.79357e-16
8.59825e-16
7.63214e-13
1.50754e-16
-4.52225e-16
7.6307e-13
-8.27169e-17
2.28109e-16
7.63135e-13
3.89572e-17
-1.09665e-16
7.631e-13
-1.91152e-17
4.49072e-17
7.63117e-13
8.42514e-18
-2.20166e-17
7.63107e-13
-4.28767e-18
1.4345e-17
7.63116e-13
2.45253e-18
-1.05122e-17
7.63109e-13
-1.57454e-18
8.08135e-18
7.63115e-13
1.23113e-18
-6.49109e-18
7.6311e-13
-1.0836e-18
5.62432e-18
7.63114e-13
9.06863e-19
-4.51058e-18
7.63112e-13
3.84176e-19
1.26396e-18
7.63113e-13
-4.50139e-19
-4.03185e-19
7.63113e-13
9.8981e-19
-1.2939e-18
7.63112e-13
-1.00789e-18
2.63031e-18
7.63114e-13
1.03259e-18
-3.5555e-18
7.63111e-13
-2.98943e-19
3.36914e-18
7.63117e-13
2.47431e-18
-8.25647e-18
7.63112e-13
-9.12252e-19
5.94146e-18
7.6312e-13
2.87345e-18
-9.95748e-18
7.63112e-13
-7.41476e-19
8.82632e-18
7.63128e-13
2.45404e-18
-1.24879e-17
7.63107e-13
-3.62284e-18
1.85463e-17
7.63125e-13
-1.58047e-19
-1.24616e-17
7.63105e-13
-1.46488e-18
1.69368e-17
7.63127e-13
-2.51483e-19
-1.2058e-17
-4.99465e-18
2.21257e-17
7.52862e-13
-5.68324e-13
1.17992e-12
7.06702e-13
-3.20019e-14
6.06927e-14
7.33556e-13
1.86075e-14
-3.53155e-14
7.1771e-13
-1.10294e-14
2.08809e-14
7.27241e-13
6.65199e-15
-1.2565e-14
7.21537e-13
-4.0244e-15
7.56743e-15
7.24916e-13
2.47066e-15
-4.56768e-15
7.22946e-13
-1.49284e-15
2.70124e-15
7.24068e-13
8.73336e-16
-1.54086e-15
7.23454e-13
-5.00665e-16
8.50352e-16
7.23774e-13
2.71279e-16
-4.47566e-16
7.23618e-13
-1.45835e-16
2.24998e-16
7.23689e-13
7.08455e-17
-1.08415e-16
7.23652e-13
-3.24177e-17
4.45075e-17
7.23669e-13
1.48401e-17
-2.15602e-17
7.23659e-13
-7.80528e-18
1.45804e-17
7.23669e-13
4.80841e-18
-1.06773e-17
7.23661e-13
-3.12153e-18
8.14694e-18
7.23668e-13
2.47882e-18
-6.60551e-18
7.23663e-13
-2.12484e-18
5.55041e-18
7.23667e-13
1.67298e-18
-4.35587e-18
7.23665e-13
3.95578e-19
1.49686e-18
7.23666e-13
-8.07937e-19
-3.62967e-19
7.23666e-13
1.58106e-18
-1.16006e-18
7.23664e-13
-1.90153e-18
2.60144e-18
7.23667e-13
2.07788e-18
-3.63374e-18
7.23664e-13
-1.43078e-18
3.94093e-18
7.2367e-13
4.16646e-18
-7.6885e-18
7.23665e-13
-2.45632e-18
6.39694e-18
7.23674e-13
4.49645e-18
-9.23315e-18
7.23665e-13
-2.58803e-18
9.57569e-18
7.23681e-13
3.82134e-18
-1.24605e-17
7.23661e-13
-5.63715e-18
1.75803e-17
7.23677e-13
1.15955e-18
-1.37758e-17
7.23658e-13
-3.19813e-18
1.72353e-17
7.23679e-13
1.57967e-19
-1.32015e-17
-6.71943e-18
2.16952e-17
6.71352e-13
-7.40714e-13
1.16804e-12
6.19566e-13
-3.91602e-14
5.89497e-14
6.49543e-13
2.28524e-14
-3.42236e-14
6.31842e-13
-1.36003e-14
2.02745e-14
6.42492e-13
8.19392e-15
-1.21928e-14
6.36106e-13
-4.94522e-15
7.32975e-15
6.39913e-13
3.00598e-15
-4.40527e-15
6.37678e-13
-1.80144e-15
2.59751e-15
6.38956e-13
1.04964e-15
-1.48066e-15
6.38251e-13
-5.97028e-16
8.17089e-16
6.38622e-13
3.24249e-16
-4.30353e-16
6.38438e-13
-1.7224e-16
2.163e-16
6.38523e-13
8.47478e-17
-1.04521e-16
6.3848e-13
-3.96721e-17
4.45703e-17
6.38501e-13
1.87831e-17
-2.20406e-17
6.38489e-13
-9.99664e-18
1.45586e-17
6.38499e-13
6.40973e-18
-1.05638e-17
6.38492e-13
-4.36778e-18
8.19334e-18
6.38498e-13
3.42819e-18
-6.56348e-18
6.38493e-13
-2.83534e-18
5.50761e-18
6.38497e-13
2.1714e-18
-4.33073e-18
6.38495e-13
-1.18889e-19
1.81412e-18
6.38496e-13
-4.52577e-19
-8.28965e-19
6.38497e-13
1.38196e-18
-7.34101e-19
6.38495e-13
-1.94324e-18
2.10329e-18
6.38498e-13
2.31839e-18
-3.14809e-18
6.38495e-13
-2.04229e-18
3.50171e-18
6.38502e-13
4.72044e-18
-7.22056e-18
6.38496e-13
-3.40295e-18
6.05822e-18
6.38505e-13
5.51905e-18
-9.29522e-18
6.38497e-13
-4.31887e-18
9.51244e-18
6.38513e-13
6.20042e-18
-1.3404e-17
6.38492e-13
-8.49687e-18
1.85857e-17
6.38508e-13
4.63844e-18
-1.50191e-17
6.38489e-13
-6.62168e-18
1.84458e-17
6.38509e-13
4.40947e-18
-1.57081e-17
-9.94536e-18
2.33502e-17
5.29833e-13
-6.94331e-13
1.09078e-12
4.68812e-13
-3.04445e-14
5.231e-14
5.04209e-13
1.78836e-14
-3.04301e-14
4.8321e-13
-1.06889e-14
1.80898e-14
4.95848e-13
6.43261e-15
-1.0877e-14
4.88255e-13
-3.86531e-15
6.53579e-15
4.92808e-13
2.31252e-15
-3.92327e-15
4.90116e-13
-1.36904e-15
2.3149e-15
4.91667e-13
7.95619e-16
-1.32421e-15
4.90801e-13
-4.48426e-16
7.3422e-16
4.91263e-13
2.43663e-16
-3.89045e-16
4.91027e-13
-1.26714e-16
1.96652e-16
4.9114e-13
6.20767e-17
-9.55998e-17
4.91084e-13
-3.13128e-17
4.17967e-17
4.91111e-13
1.49797e-17
-2.06798e-17
4.91097e-13
-8.10523e-18
1.31464e-17
4.91109e-13
5.52138e-18
-9.37785e-18
4.911e-13
-4.00501e-18
7.26198e-18
4.91107e-13
3.17927e-18
-5.74927e-18
4.91102e-13
-2.3933e-18
4.77182e-18
4.91106e-13
1.73306e-18
-3.66869e-18
4.91105e-13
-6.91827e-19
1.64609e-18
4.91105e-13
9.73224e-20
-7.13241e-19
4.91106e-13
6.73722e-19
-6.62162e-19
4.91104e-13
-1.25424e-18
1.82686e-18
4.91107e-13
1.68034e-18
-2.71843e-18
4.91103e-13
-1.96948e-18
3.15763e-18
4.91111e-13
3.4231e-18
-6.06425e-18
4.91105e-13
-3.10598e-18
5.4043e-18
4.91115e-13
4.58838e-18
-8.03665e-18
4.91106e-13
-4.62931e-18
8.47242e-18
4.91121e-13
7.42072e-18
-1.1924e-17
4.91101e-13
-9.17951e-18
1.60388e-17
4.91116e-13
7.49696e-18
-1.35156e-17
4.91098e-13
-8.398e-18
1.60714e-17
4.91116e-13
8.88538e-18
-1.46038e-17
-1.07845e-17
2.05823e-17
2.78337e-13
6.94331e-13
2.17446e-13
3.04472e-14
2.53211e-13
-1.78822e-14
2.31835e-13
1.06878e-14
2.44698e-13
-6.43022e-15
2.36964e-13
3.87339e-15
2.41608e-13
-2.34378e-15
2.38854e-13
1.39525e-15
2.40448e-13
-8.04045e-16
2.39551e-13
4.52004e-16
2.40036e-13
-2.42673e-16
2.39785e-13
1.25952e-16
2.39909e-13
-6.30679e-17
2.39848e-13
2.79583e-17
2.39878e-13
-1.39987e-17
2.39862e-13
8.20499e-18
2.39873e-13
-5.36188e-18
2.39865e-13
3.86769e-18
2.39871e-13
-3.05254e-18
2.39866e-13
2.58879e-18
2.3987e-13
-2.02919e-18
2.39869e-13
6.84537e-19
2.39869e-13
-1.62004e-19
2.3987e-13
-5.47826e-19
2.39868e-13
1.13619e-18
2.39871e-13
-1.56157e-18
2.39867e-13
1.63671e-18
2.39874e-13
-3.38316e-18
2.39868e-13
2.84286e-18
2.39877e-13
-4.20049e-18
2.39868e-13
4.05246e-18
2.39882e-13
-5.26214e-18
2.39864e-13
7.2385e-18
2.39878e-13
-5.46163e-18
2.39862e-13
6.93293e-18
2.39878e-13
-5.36375e-18
9.16425e-18
5.29833e-13
1.09078e-12
7.40715e-13
4.68812e-13
5.23095e-14
3.91609e-14
5.04209e-13
-3.04301e-14
-2.28502e-14
4.8321e-13
1.80897e-14
1.35989e-14
4.95848e-13
-1.0877e-14
-8.19123e-15
4.88254e-13
6.53489e-15
4.95691e-15
4.92809e-13
-3.92113e-15
-3.03085e-15
4.90116e-13
2.31362e-15
1.82169e-15
4.91667e-13
-1.32208e-15
-1.05469e-15
4.90801e-13
7.3145e-16
5.95319e-16
4.91263e-13
-3.87371e-16
-3.22712e-16
4.91028e-13
1.95885e-16
1.69718e-16
4.9114e-13
-9.44602e-17
-8.5922e-17
4.91084e-13
4.21691e-17
3.56485e-17
4.91111e-13
-2.10263e-17
-1.78251e-17
4.91098e-13
1.26968e-17
9.83348e-18
4.91109e-13
-9.33352e-18
-6.32731e-18
4.911e-13
7.33127e-18
4.28565e-18
4.91107e-13
-5.77592e-18
-3.34214e-18
4.91102e-13
4.85238e-18
3.00262e-18
4.91106e-13
-3.77027e-18
-2.348e-18
4.91105e-13
1.61839e-18
1.10304e-19
4.91105e-13
-8.10678e-19
5.01289e-19
4.91106e-13
-6.43968e-19
-1.27918e-18
4.91104e-13
1.80305e-18
1.96504e-18
4.91107e-13
-2.69765e-18
-2.34463e-18
4.91104e-13
3.00566e-18
2.17074e-18
4.91111e-13
-6.35722e-18
-4.62261e-18
4.91105e-13
5.30361e-18
3.54262e-18
4.91115e-13
-8.48177e-18
-4.87801e-18
4.91106e-13
8.34306e-18
4.33526e-18
4.91122e-13
-1.24254e-17
-3.81151e-18
4.91102e-13
1.70268e-17
6.39159e-18
4.91116e-13
-1.34779e-17
-3.20895e-18
4.91098e-13
1.64437e-17
5.31637e-18
4.91116e-13
-1.47748e-17
-1.24022e-18
2.06214e-17
6.53117e-18
1.14948e-12
1.34954e-12
1.34954e-12
1.10384e-12
7.51372e-14
7.51375e-14
1.1294e-12
-4.32132e-14
-4.32137e-14
1.11456e-12
2.55125e-14
2.5513e-14
1.12355e-12
-1.53689e-14
-1.53694e-14
1.11809e-12
9.29837e-15
9.29751e-15
1.12145e-12
-5.68768e-15
-5.68743e-15
1.11937e-12
3.42835e-15
3.42657e-15
1.12064e-12
-1.98989e-15
-1.99029e-15
1.11988e-12
1.12744e-15
1.12925e-15
1.12032e-12
-6.1549e-16
-6.16452e-16
1.12007e-12
3.26502e-16
3.27484e-16
1.1202e-12
-1.66508e-16
-1.66878e-16
1.12012e-12
7.04746e-17
7.14867e-17
1.12016e-12
-3.59788e-17
-3.64988e-17
1.12015e-12
1.84288e-17
1.86795e-17
1.12016e-12
-1.14156e-17
-1.14125e-17
1.12015e-12
7.98622e-18
7.93741e-18
1.12016e-12
-5.86412e-18
-5.80855e-18
1.12015e-12
5.59104e-18
5.54437e-18
1.12016e-12
-4.35353e-18
-4.313e-18
1.12016e-12
-6.75904e-21
-3.74937e-20
1.12016e-12
7.31196e-19
7.54853e-19
1.12016e-12
-2.41849e-18
-2.45243e-18
1.12016e-12
3.49804e-18
3.50303e-18
1.12016e-12
-4.02236e-18
-4.02746e-18
1.12016e-12
3.24523e-18
3.2193e-18
1.12016e-12
-8.88506e-18
-8.8612e-18
1.12016e-12
5.93568e-18
5.89426e-18
1.12017e-12
-9.79493e-18
-9.85122e-18
1.12017e-12
6.98638e-18
7.02085e-18
1.12017e-12
-6.97317e-18
-7.09464e-18
1.12017e-12
1.26814e-17
1.26737e-17
1.12016e-12
-4.22319e-18
-4.44175e-18
1.12016e-12
9.12365e-18
9.35246e-18
1.12016e-12
-8.64426e-19
-1.00625e-18
1.12913e-17
1.12869e-17
1.53388e-12
1.11337e-12
1.53733e-12
1.51366e-12
6.53711e-14
8.89443e-14
1.52441e-12
-3.72874e-14
-5.0898e-14
1.51845e-12
2.18714e-14
2.98746e-14
1.52208e-12
-1.31823e-14
-1.80034e-14
1.51988e-12
7.99584e-15
1.09029e-14
1.52123e-12
-4.92601e-15
-6.68877e-15
1.52038e-12
2.98707e-15
4.03327e-15
1.52092e-12
-1.73217e-15
-2.3382e-15
1.52059e-12
9.80036e-16
1.32355e-15
1.52078e-12
-5.35452e-16
-7.19777e-16
1.52067e-12
2.84369e-16
3.81413e-16
1.52073e-12
-1.45866e-16
-1.94018e-16
1.52068e-12
5.78364e-17
8.01864e-17
1.5207e-12
-3.02952e-17
-4.08374e-17
1.5207e-12
1.44699e-17
2.14761e-17
1.52071e-12
-9.28376e-18
-1.33286e-17
1.52071e-12
6.39872e-18
9.11239e-18
1.52071e-12
-4.64423e-18
-6.78754e-18
1.52071e-12
4.84439e-18
6.57123e-18
1.52071e-12
-3.88458e-18
-5.19783e-18
1.52071e-12
-5.59567e-19
-2.8071e-19
1.52071e-12
1.04426e-18
1.16408e-18
1.52071e-12
-2.42817e-18
-3.06374e-18
1.52071e-12
3.31713e-18
4.36241e-18
1.52071e-12
-3.58189e-18
-4.98339e-18
1.52071e-12
2.47801e-18
3.925e-18
1.52071e-12
-8.12029e-18
-1.0692e-17
1.52071e-12
4.81673e-18
7.01084e-18
1.52071e-12
-8.23572e-18
-1.12506e-17
1.52072e-12
5.01457e-18
8.11298e-18
1.52072e-12
-3.06403e-18
-6.967e-18
1.52072e-12
8.74585e-18
1.36691e-17
1.52071e-12
3.9634e-19
-3.87546e-18
1.52071e-12
4.75949e-18
9.91624e-18
1.52071e-12
5.2321e-18
1.40583e-18
4.60801e-18
1.19336e-17
1.76261e-12
6.1416e-13
1.58351e-12
1.75831e-12
3.69299e-14
9.34455e-14
1.7602e-12
-2.09712e-14
-5.3526e-14
1.75941e-12
1.22487e-14
3.12973e-14
1.75992e-12
-7.38402e-15
-1.88689e-14
1.75962e-12
4.49444e-15
1.14368e-14
1.75977e-12
-2.78417e-15
-7.03647e-15
1.75966e-12
1.69415e-15
4.25123e-15
1.75977e-12
-9.76122e-16
-2.46459e-15
1.75969e-12
5.45046e-16
1.39569e-15
1.75974e-12
-2.97655e-16
-7.57803e-16
1.75971e-12
1.5574e-16
4.01942e-16
1.75972e-12
-8.10247e-17
-2.03944e-16
1.7597e-12
2.80304e-17
8.26299e-17
1.75971e-12
-1.57489e-17
-4.19363e-17
1.75971e-12
6.95379e-18
2.20262e-17
1.75971e-12
-5.04289e-18
-1.36876e-17
1.75972e-12
3.59733e-18
9.26582e-18
1.75972e-12
-2.56778e-18
-6.90756e-18
1.75972e-12
2.94724e-18
6.85653e-18
1.75972e-12
-2.38915e-18
-5.50133e-18
1.75972e-12
-4.22398e-19
-7.23848e-19
1.75972e-12
7.1551e-19
1.52486e-18
1.75972e-12
-1.37862e-18
-3.57858e-18
1.75972e-12
2.02006e-18
4.87727e-18
1.75972e-12
-2.15113e-18
-5.42409e-18
1.75972e-12
1.52929e-18
3.89187e-18
1.75972e-12
-4.81095e-18
-1.17745e-17
1.75972e-12
2.82295e-18
7.09299e-18
1.75972e-12
-4.26371e-18
-1.20382e-17
1.75972e-12
2.72207e-18
7.79642e-18
1.75973e-12
2.83863e-19
-6.31775e-18
1.75972e-12
3.70488e-18
1.38601e-17
1.75972e-12
1.87883e-18
-1.93704e-18
1.75972e-12
1.52845e-18
9.01125e-18
1.75973e-12
6.42449e-18
4.38503e-18
-1.72427e-18
1.14485e-17
1.86968e-12
3.80943e-18
1.59047e-12
1.87306e-12
-1.936e-18
9.45126e-14
1.87079e-12
4.41524e-18
-5.42599e-14
1.87238e-12
-3.52411e-18
3.16664e-14
1.87145e-12
5.84515e-18
-1.90943e-14
1.87202e-12
1.84659e-17
1.15749e-14
1.87162e-12
-2.53847e-17
-7.13097e-15
1.87186e-12
2.02986e-17
4.31305e-15
1.87176e-12
4.32119e-19
-2.50086e-15
1.8718e-12
-1.42157e-17
1.41752e-15
1.87179e-12
6.80877e-18
-7.68953e-16
1.87179e-12
-7.99311e-18
4.08316e-16
1.87179e-12
1.24386e-18
-2.06853e-16
1.87177e-12
-7.0465e-18
8.32808e-17
1.87178e-12
1.4019e-18
-4.2237e-17
1.87178e-12
-1.73924e-18
2.20782e-17
1.87178e-12
1.78787e-19
-1.36708e-17
1.87178e-12
2.37576e-19
9.24032e-18
1.87178e-12
1.38798e-20
-6.86788e-18
1.87178e-12
4.73796e-19
6.9457e-18
1.87178e-12
-3.82588e-19
-5.6435e-18
1.87178e-12
3.38496e-20
-9.4566e-19
1.87178e-12
-6.59641e-20
1.60613e-18
1.87178e-12
2.32614e-19
-3.78152e-18
1.87178e-12
6.19739e-20
5.01096e-18
1.87178e-12
-9.24043e-20
-5.47086e-18
1.87178e-12
2.56771e-19
3.566e-18
1.87178e-12
-3.00992e-19
-1.22885e-17
1.87178e-12
2.89112e-19
6.86898e-18
1.87179e-12
4.63058e-19
-1.25698e-17
1.87179e-12
2.22414e-19
7.34946e-18
1.87179e-12
2.88122e-18
-6.20128e-18
1.87179e-12
-1.29411e-18
1.43327e-17
1.87179e-12
1.65878e-18
-8.08637e-19
1.87179e-12
-8.42054e-19
8.62689e-18
1.8718e-12
4.50585e-18
5.68278e-18
-7.02456e-18
1.17997e-17
1.86968e-12
-6.14151e-13
1.59048e-12
1.87306e-12
-3.69329e-14
9.45129e-14
1.87079e-12
2.09789e-14
-5.42601e-14
1.87238e-12
-1.22549e-14
3.16665e-14
1.87145e-12
7.39474e-15
-1.90942e-14
1.87202e-12
-4.45798e-15
1.15735e-14
1.87162e-12
2.73202e-15
-7.12917e-15
1.87186e-12
-1.65209e-15
4.31157e-15
1.87176e-12
9.74685e-16
-2.50092e-15
1.8718e-12
-5.70248e-16
1.41849e-15
1.87179e-12
3.09593e-16
-7.69401e-16
1.87179e-12
-1.70047e-16
4.08533e-16
1.87179e-12
8.28093e-17
-2.06909e-16
1.87177e-12
-4.1538e-17
8.3456e-17
1.87178e-12
1.8591e-17
-4.21843e-17
1.87178e-12
-1.00796e-17
2.21865e-17
1.87178e-12
5.4398e-18
-1.37e-17
1.87178e-12
-3.19532e-18
9.2476e-18
1.87178e-12
2.64912e-18
-6.88879e-18
1.87178e-12
-2.08407e-18
6.91959e-18
1.87178e-12
1.70199e-18
-5.60809e-18
1.87178e-12
4.60976e-19
-9.00668e-19
1.87178e-12
-8.00768e-19
1.61939e-18
1.87178e-12
1.80192e-18
-3.77975e-18
1.87178e-12
-1.8962e-18
5.00162e-18
1.87178e-12
1.96865e-18
-5.46199e-18
1.87178e-12
-1.01403e-18
3.59746e-18
1.87178e-12
4.31575e-18
-1.21761e-17
1.87178e-12
-2.25129e-18
6.88404e-18
1.87178e-12
5.25782e-18
-1.24547e-17
1.87179e-12
-2.30371e-18
7.38419e-18
1.87179e-12
5.48558e-18
-6.28548e-18
1.87179e-12
-6.61132e-18
1.41913e-17
1.87179e-12
1.46524e-18
-9.67706e-19
1.87179e-12
-3.40041e-18
8.63334e-18
1.8718e-12
2.57324e-18
5.43184e-18
-1.1742e-17
1.20859e-17
1.76261e-12
-1.11336e-12
1.58351e-12
1.75831e-12
-6.53723e-14
9.34463e-14
1.7602e-12
3.72926e-14
-5.35265e-14
1.75941e-12
-2.18754e-14
3.12976e-14
1.75992e-12
1.31904e-14
-1.88689e-14
1.75962e-12
-7.96219e-15
1.14324e-14
1.75977e-12
4.87236e-15
-7.03084e-15
1.75966e-12
-2.94264e-15
4.24681e-15
1.75977e-12
1.72521e-15
-2.46458e-15
1.75969e-12
-9.96505e-16
1.39841e-15
1.75975e-12
5.42915e-16
-7.59048e-16
1.75971e-12
-2.94041e-16
4.02622e-16
1.75973e-12
1.45867e-16
-2.04086e-16
1.7597e-12
-6.93453e-17
8.32214e-17
1.75971e-12
3.29823e-17
-4.18719e-17
1.75971e-12
-1.66861e-17
2.2304e-17
1.75971e-12
9.80634e-18
-1.37474e-17
1.75972e-12
-6.19651e-18
9.28958e-18
1.75972e-12
4.87573e-18
-6.9562e-18
1.75972e-12
-4.20892e-18
6.79088e-18
1.75972e-12
3.394e-18
-5.41842e-18
1.75972e-12
4.98739e-19
-6.18861e-19
1.75972e-12
-1.03518e-18
1.53671e-18
1.75972e-12
2.72151e-18
-3.58182e-18
1.75972e-12
-3.19444e-18
4.84633e-18
1.75972e-12
3.41865e-18
-5.38505e-18
1.75972e-12
-2.04159e-18
3.90076e-18
1.75972e-12
7.7881e-18
-1.15479e-17
1.75972e-12
-4.3086e-18
7.07267e-18
1.75972e-12
9.15416e-18
-1.18757e-17
1.75972e-12
-4.68534e-18
7.82112e-18
1.75973e-12
8.50169e-18
-6.68363e-18
1.75972e-12
-1.20111e-17
1.37527e-17
1.75972e-12
2.9289e-18
-2.33465e-18
1.75972e-12
-6.90837e-18
9.12792e-18
1.75973e-12
3.41282e-18
3.62891e-18
-1.61295e-17
1.24624e-17
1.53388e-12
-1.34954e-12
1.53733e-12
1.51366e-12
-7.5136e-14
8.89453e-14
1.52441e-12
4.32149e-14
-5.08987e-14
1.51845e-12
-2.55133e-14
2.9875e-14
1.52208e-12
1.53726e-14
-1.80037e-14
1.51988e-12
-9.26915e-15
1.08964e-14
1.52122e-12
5.63102e-15
-6.68005e-15
1.52038e-12
-3.37929e-15
4.02659e-15
1.52092e-12
1.97416e-15
-2.33803e-15
1.52059e-12
-1.13005e-15
1.3274e-15
1.52078e-12
6.16122e-16
-7.21562e-16
1.52067e-12
-3.28989e-16
3.82525e-16
1.52073e-12
1.63766e-16
-1.94226e-16
1.52068e-12
-7.91478e-17
8.1056e-17
1.5207e-12
3.84322e-17
-4.07462e-17
1.5207e-12
-1.92859e-17
2.18568e-17
1.52071e-12
1.21366e-17
-1.33935e-17
1.52071e-12
-8.04218e-18
9.14965e-18
1.52071e-12
6.34404e-18
-6.84506e-18
1.52071e-12
-5.24939e-18
6.48525e-18
1.52071e-12
4.09006e-18
-5.09841e-18
1.52071e-12
-2.31142e-19
-1.60803e-19
1.52071e-12
-6.68328e-19
1.15349e-18
1.52071e-12
2.53315e-18
-3.07239e-18
1.52071e-12
-3.43869e-18
4.30603e-18
1.52071e-12
3.96376e-18
-4.90771e-18
1.52071e-12
-3.22282e-18
3.8336e-18
1.52071e-12
8.69091e-18
-1.04625e-17
1.52071e-12
-5.83487e-18
6.89099e-18
1.52071e-12
1.04942e-17
-1.11756e-17
1.52072e-12
-7.28769e-18
8.02837e-18
1.52072e-12
1.19919e-17
-7.59106e-18
1.52071e-12
-1.61959e-17
1.38199e-17
1.52071e-12
8.00813e-18
-4.34257e-18
1.52071e-12
-1.17449e-17
1.01741e-17
1.52071e-12
9.22607e-18
3.14804e-19
-1.93445e-17
1.36961e-17
1.14948e-12
-1.09078e-12
1.34954e-12
1.10384e-12
-5.23074e-14
7.51383e-14
1.1294e-12
3.04294e-14
-4.32142e-14
1.11456e-12
-1.80884e-14
2.55131e-14
1.12354e-12
1.08768e-14
-1.53695e-14
1.11809e-12
-6.51968e-15
9.29222e-15
1.12145e-12
3.88665e-15
-5.68042e-15
1.11937e-12
-2.28297e-15
3.42074e-15
1.12064e-12
1.3079e-15
-1.99054e-15
1.11988e-12
-7.25122e-16
1.13303e-15
1.12032e-12
3.83741e-16
-6.18156e-16
1.12007e-12
-1.93775e-16
3.28635e-16
1.1202e-12
9.1305e-17
-1.67093e-16
1.12012e-12
-4.60528e-17
7.23427e-17
1.12016e-12
2.26051e-17
-3.63667e-17
1.12015e-12
-1.23687e-17
1.91429e-17
1.12016e-12
9.81555e-18
-1.15093e-17
1.12015e-12
-7.48911e-18
7.96492e-18
1.12016e-12
6.1659e-18
-5.87813e-18
1.12015e-12
-4.84137e-18
5.45355e-18
1.12016e-12
3.81031e-18
-4.20924e-18
1.12016e-12
-1.80231e-18
8.99914e-20
1.12016e-12
9.38887e-19
7.77952e-19
1.12016e-12
5.99757e-19
-2.4398e-18
1.12016e-12
-1.75725e-18
3.43581e-18
1.12016e-12
2.66965e-18
-3.96109e-18
1.12016e-12
-3.01037e-18
3.17867e-18
1.12016e-12
6.50865e-18
-8.52113e-18
1.12016e-12
-5.3141e-18
5.78925e-18
1.12017e-12
9.07777e-18
-9.53678e-18
1.12017e-12
-8.66371e-18
6.90684e-18
1.12017e-12
1.52779e-17
-7.44215e-18
1.12017e-12
-1.97259e-17
1.24107e-17
1.12016e-12
1.57046e-17
-4.80863e-18
1.12016e-12
-1.83951e-17
9.41704e-18
1.12016e-12
1.94204e-17
-1.84748e-18
-2.36782e-17
1.27482e-17
5.29833e-13
7.40716e-13
4.68812e-13
3.91618e-14
5.04209e-13
-2.28504e-14
4.8321e-13
1.35991e-14
4.95848e-13
-8.19148e-15
4.88255e-13
4.95236e-15
4.92808e-13
-3.02634e-15
4.90116e-13
1.81872e-15
4.91667e-13
-1.0545e-15
4.90801e-13
5.97743e-16
4.91263e-13
-3.23229e-16
4.91027e-13
1.69692e-16
4.9114e-13
-8.56692e-17
4.91084e-13
3.612e-17
4.91111e-13
-1.78784e-17
4.91097e-13
1.00562e-17
4.91109e-13
-6.38091e-18
4.911e-13
4.35721e-18
4.91107e-13
-3.4134e-18
4.91102e-13
2.99711e-18
4.91106e-13
-2.32381e-18
4.91105e-13
2.38152e-19
4.91105e-13
4.53733e-19
4.91106e-13
-1.28493e-18
4.91104e-13
1.93055e-18
4.91107e-13
-2.28928e-18
4.91103e-13
2.10433e-18
4.91111e-13
-4.46206e-18
4.91105e-13
3.42987e-18
4.91115e-13
-4.8039e-18
4.91106e-13
4.19042e-18
4.91121e-13
-4.23108e-18
4.91101e-13
6.44073e-18
4.91116e-13
-3.45499e-18
4.91098e-13
5.38242e-18
4.91116e-13
-1.92266e-18
7.6237e-18
6.71352e-13
1.16804e-12
5.68324e-13
6.19566e-13
5.89496e-14
3.20014e-14
6.49543e-13
-3.4223e-14
-1.86045e-14
6.31841e-13
2.02735e-14
1.10278e-14
6.42492e-13
-1.21915e-14
-6.64941e-15
6.36105e-13
7.33274e-15
4.03731e-15
6.39913e-13
-4.4109e-15
-2.49257e-15
6.37678e-13
2.60193e-15
1.51073e-15
6.38956e-13
-1.48098e-15
-8.7565e-16
6.38252e-13
8.14899e-16
4.95384e-16
6.38621e-13
-4.28805e-16
-2.68605e-16
6.38438e-13
2.15177e-16
1.41695e-16
6.38523e-13
-1.03862e-16
-7.19568e-17
6.3848e-13
4.35273e-17
2.76275e-17
6.38501e-13
-2.15614e-17
-1.38865e-17
6.3849e-13
1.43018e-17
7.3438e-18
6.38499e-13
-1.05863e-17
-4.71394e-18
6.38492e-13
8.19506e-18
3.11285e-18
6.38498e-13
-6.61111e-18
-2.39355e-18
6.38493e-13
5.56281e-18
2.36481e-18
6.38497e-13
-4.38155e-18
-1.91165e-18
6.38495e-13
1.85004e-18
-4.42827e-19
6.38496e-13
-7.88454e-19
7.88096e-19
6.38497e-13
-6.71689e-19
-1.49074e-18
6.38495e-13
2.10073e-18
1.97452e-18
6.38498e-13
-3.18409e-18
-2.12505e-18
6.38495e-13
3.68257e-18
1.50117e-18
6.38502e-13
-7.09266e-18
-4.3889e-18
6.38496e-13
6.23196e-18
2.5561e-18
6.38506e-13
-8.95775e-18
-4.23164e-18
6.38497e-13
9.67422e-18
2.59318e-18
6.38513e-13
-1.28549e-17
-1.59952e-18
6.38492e-13
1.78789e-17
4.38279e-18
6.38508e-13
-1.48282e-17
2.54106e-19
6.38489e-13
1.80385e-17
2.30161e-18
6.38509e-13
-1.4993e-17
2.86453e-18
2.23053e-17
3.05549e-18
1.53388e-12
1.53733e-12
1.11337e-12
1.51366e-12
8.89438e-14
6.53716e-14
1.52441e-12
-5.08973e-14
-3.72882e-14
1.51845e-12
2.98739e-14
2.18723e-14
1.52208e-12
-1.80027e-14
-1.31833e-14
1.51988e-12
1.09042e-14
7.99481e-15
1.52123e-12
-6.68892e-15
-4.92663e-15
1.52038e-12
4.03556e-15
2.9852e-15
1.52092e-12
-2.33745e-15
-1.73338e-15
1.52059e-12
1.32086e-15
9.83366e-16
1.52078e-12
-7.18382e-16
-5.3723e-16
1.52067e-12
3.80022e-16
2.8616e-16
1.52073e-12
-1.93643e-16
-1.46575e-16
1.52068e-12
7.88962e-17
5.92093e-17
1.5207e-12
-4.02049e-17
-3.08723e-17
1.5207e-12
2.12023e-17
1.48986e-17
1.52071e-12
-1.33286e-17
-9.26268e-18
1.52071e-12
9.16828e-18
6.31292e-18
1.52071e-12
-6.86627e-18
-4.54129e-18
1.52071e-12
6.62883e-18
4.76379e-18
1.52071e-12
-5.25193e-18
-3.81435e-18
1.52071e-12
-2.47458e-19
-6.17983e-19
1.52071e-12
1.14027e-18
1.08525e-18
1.52071e-12
-3.02613e-18
-2.48625e-18
1.52071e-12
4.3689e-18
3.32301e-18
1.52071e-12
-4.98931e-18
-3.58773e-18
1.52071e-12
3.98171e-18
2.42342e-18
1.52071e-12
-1.07421e-17
-8.07744e-18
1.52071e-12
7.08819e-18
4.73545e-18
1.52071e-12
-1.12227e-17
-8.31182e-18
1.52072e-12
8.12159e-18
5.03117e-18
1.52072e-12
-6.82722e-18
-3.1915e-18
1.52072e-12
1.37224e-17
8.6623e-18
1.52071e-12
-3.61884e-18
1.31363e-19
1.52071e-12
9.64722e-18
5.05125e-18
1.52071e-12
1.54227e-18
5.12735e-18
1.19431e-17
4.7897e-18
2.09659e-12
1.32253e-12
1.32253e-12
2.11419e-12
8.01521e-14
8.0153e-14
2.10312e-12
-4.53676e-14
-4.53687e-14
2.11006e-12
2.64085e-14
2.64095e-14
2.10591e-12
-1.59257e-14
-1.59269e-14
2.10844e-12
9.67274e-15
9.67107e-15
2.10685e-12
-5.9776e-15
-5.97854e-15
2.10781e-12
3.62946e-15
3.62699e-15
2.10727e-12
-2.10136e-15
-2.1031e-15
2.10757e-12
1.18633e-15
1.19092e-15
2.10741e-12
-6.46059e-16
-6.48397e-16
2.1075e-12
3.42475e-16
3.4478e-16
2.10745e-12
-1.75504e-16
-1.76197e-16
2.10745e-12
6.68727e-17
6.85413e-17
2.10745e-12
-3.492e-17
-3.55892e-17
2.10746e-12
1.71089e-17
1.75723e-17
2.10746e-12
-1.10858e-17
-1.10726e-17
2.10746e-12
7.48317e-18
7.3874e-18