/*--------------------------------*- C++ -*----------------------------------*\
  =========                 |
  \\      /  F ield         | OpenFOAM: The Open Source CFD Toolbox
   \\    /   O peration     | Website:  https://openfoam.org
    \\  /    A nd           | Version:  13
     \\/     M anipulation  |
\*---------------------------------------------------------------------------*/
FoamFile
{
    format      ascii;
    class       volVectorField;
    location    "29";
    object      U;
}
// * * * * * * * * * * * * * * * * * * * * * * * * * * * * * * * * * * * * * //

dimensions      [0 1 -1 0 0 0 0];

internalField   nonuniform List<vector> 
3700
(
(0.00196902 7.3872e-05 7.3872e-05)
(0.00268884 3.59961e-06 3.5996e-06)
(0.00222016 -2.15807e-06 -2.1581e-06)
(0.00250616 1.29622e-06 1.29625e-06)
(0.00233385 -7.79509e-07 -7.7954e-07)
(0.00243777 4.68635e-07 4.68662e-07)
(0.00237509 -2.81887e-07 -2.81847e-07)
(0.00241295 1.67735e-07 1.67691e-07)
(0.00239022 -9.73033e-08 -9.73218e-08)
(0.00240364 5.51356e-08 5.51566e-08)
(0.00239589 -3.0088e-08 -3.01273e-08)
(0.00240021 1.58159e-08 1.58561e-08)
(0.00239789 -8.0875e-09 -8.09699e-09)
(0.00239907 3.77256e-09 3.79379e-09)
(0.0023985 -1.89728e-09 -1.90279e-09)
(0.00239876 1.06027e-09 1.05993e-09)
(0.00239864 -6.49458e-10 -6.48402e-10)
(0.00239871 4.66845e-10 4.65861e-10)
(0.00239867 -3.56365e-10 -3.54453e-10)
(0.00239869 2.93389e-10 2.90961e-10)
(0.00239868 -2.20166e-10 -2.17376e-10)
(0.0023987 9.49886e-11 9.23351e-11)
(0.00239868 -3.66366e-11 -3.50643e-11)
(0.0023987 -4.92912e-11 -5.08454e-11)
(0.00239868 1.13709e-10 1.14537e-10)
(0.00239871 -1.60286e-10 -1.61173e-10)
(0.00239867 1.89222e-10 1.90434e-10)
(0.00239873 -3.68466e-10 -3.6868e-10)
(0.00239869 3.46288e-10 3.47379e-10)
(0.00239876 -5.19175e-10 -5.21093e-10)
(0.00239869 5.16045e-10 5.19255e-10)
(0.00239879 -7.06794e-10 -7.09594e-10)
(0.0023987 9.1607e-10 9.18812e-10)
(0.00239874 -7.51547e-10 -7.55735e-10)
(0.00239868 8.79931e-10 8.82754e-10)
(0.00239872 -8.36716e-10 -8.40057e-10)
(0.00239867 1.16155e-09 1.15699e-09)
(0.00400992 0.000144073 0.000116936)
(0.00549756 6.88662e-06 6.49619e-06)
(0.0045502 -4.01528e-06 -3.86908e-06)
(0.0051284 2.39256e-06 2.31427e-06)
(0.00477986 -1.44005e-06 -1.38656e-06)
(0.00499019 8.68708e-07 8.2494e-07)
(0.00486338 -5.26934e-07 -4.8985e-07)
(0.00493966 3.14635e-07 2.88639e-07)
(0.00489419 -1.81577e-07 -1.64642e-07)
(0.00492083 1.02012e-07 9.26396e-08)
(0.00490556 -5.50112e-08 -4.98123e-08)
(0.00491403 2.86348e-08 2.61656e-08)
(0.00490951 -1.4362e-08 -1.35271e-08)
(0.00491177 6.24832e-09 6.71183e-09)
(0.00491067 -3.1243e-09 -3.76332e-09)
(0.00491119 1.76715e-09 1.9771e-09)
(0.00491096 -1.17071e-09 -1.18031e-09)
(0.00491108 8.32319e-10 9.57973e-10)
(0.00491101 -6.56193e-10 -6.91433e-10)
(0.00491106 5.64313e-10 6.7501e-10)
(0.00491103 -4.41243e-10 -5.95679e-10)
(0.00491106 1.02855e-10 3.21257e-10)
(0.00491103 6.86955e-12 -4.2897e-10)
(0.00491108 -1.61629e-10 1.44922e-10)
(0.00491102 2.92053e-10 -6.97489e-11)
(0.00491109 -3.74754e-10 1.33807e-11)
(0.00491101 3.76884e-10 -1.05604e-10)
(0.00491113 -8.00639e-10 -8.32911e-10)
(0.00491102 6.43283e-10 4.33525e-10)
(0.00491118 -9.4132e-10 -1.60679e-09)
(0.00491102 8.77289e-10 1.00236e-09)
(0.00491124 -1.06044e-09 -2.18435e-09)
(0.00491104 1.54326e-09 3.1865e-09)
(0.00491115 -1.03112e-09 -2.01772e-09)
(0.00491102 1.38525e-09 2.78143e-09)
(0.00491111 -9.27143e-10 -2.79638e-09)
(0.00491103 1.76551e-09 3.92914e-09)
(0.00519629 0.000130164 0.000116751)
(0.0071424 7.08487e-06 7.09662e-06)
(0.00592009 -4.11834e-06 -4.23243e-06)
(0.00666513 2.44468e-06 2.5295e-06)
(0.0062158 -1.47345e-06 -1.51524e-06)
(0.00648711 8.9357e-07 9.02325e-07)
(0.00632349 -5.49139e-07 -5.35825e-07)
(0.00642163 3.31491e-07 3.14934e-07)
(0.00636348 -1.91825e-07 -1.79348e-07)
(0.00639731 1.08153e-07 1.00461e-07)
(0.00637809 -5.85483e-08 -5.40354e-08)
(0.00638867 3.07246e-08 2.83083e-08)
(0.00638309 -1.55931e-08 -1.47634e-08)
(0.00638585 6.12568e-09 7.19368e-09)
(0.0063845 -3.06466e-09 -4.0408e-09)
(0.00638514 1.6873e-09 2.24224e-09)
(0.00638485 -1.1046e-09 -1.35421e-09)
(0.00638501 7.37308e-10 1.06041e-09)
(0.00638492 -5.82267e-10 -7.83471e-10)
(0.00638498 5.37645e-10 7.42664e-10)
(0.00638494 -4.25514e-10 -6.43284e-10)
(0.00638497 -2.85725e-11 4.04608e-10)
(0.00638494 1.42297e-10 -4.55598e-10)
(0.00638499 -2.78563e-10 2.06495e-10)
(0.00638492 4.03154e-10 -1.00623e-10)
(0.00638501 -4.59962e-10 1.26976e-11)
(0.0063849 3.96211e-10 -1.32873e-12)
(0.00638506 -8.81776e-10 -7.33826e-10)
(0.0063849 6.23819e-10 5.61661e-10)
(0.00638512 -8.44997e-10 -1.45457e-09)
(0.00638488 6.85131e-10 1.21209e-09)
(0.00638519 -4.67387e-10 -2.12679e-09)
(0.00638491 9.68203e-10 2.98051e-09)
(0.00638509 -2.49034e-10 -2.32834e-09)
(0.00638491 6.77342e-10 2.93569e-09)
(0.00638504 2.34825e-10 -2.99727e-09)
(0.00638495 8.58629e-10 3.90947e-09)
(0.00587736 8.40827e-05 0.000113295)
(0.0080919 4.84369e-06 7.1468e-06)
(0.00671312 -2.80894e-06 -4.27644e-06)
(0.00755231 1.66109e-06 2.55586e-06)
(0.00704602 -1.00185e-06 -1.53218e-06)
(0.00735186 6.09195e-07 9.14174e-07)
(0.00716736 -3.77543e-07 -5.44064e-07)
(0.0072778 2.29861e-07 3.19907e-07)
(0.00721265 -1.32913e-07 -1.8231e-07)
(0.00725036 7.4963e-08 1.02007e-07)
(0.00722909 -4.06149e-08 -5.48517e-08)
(0.00724072 2.13213e-08 2.86469e-08)
(0.00723463 -1.09404e-08 -1.49214e-08)
(0.00723762 3.9308e-09 7.1304e-09)
(0.00723616 -2.03364e-09 -3.96143e-09)
(0.00723685 1.03413e-09 2.27446e-09)
(0.00723653 -6.814e-10 -1.38662e-09)
(0.00723671 4.54741e-10 1.06883e-09)
(0.00723661 -3.50046e-10 -7.96621e-10)
(0.00723667 3.67333e-10 7.37435e-10)
(0.00723664 -3.06689e-10 -6.27247e-10)
(0.00723667 -9.55553e-11 3.94215e-10)
(0.00723663 1.29932e-10 -4.09135e-10)
(0.00723669 -2.46866e-10 1.82379e-10)
(0.00723661 3.19763e-10 -6.30515e-11)
(0.00723672 -3.28594e-10 -3.98924e-11)
(0.00723658 1.95017e-10 7.26631e-11)
(0.00723677 -7.32041e-10 -7.04637e-10)
(0.00723656 3.59474e-10 5.81641e-10)
(0.00723684 -6.89083e-10 -1.31352e-09)
(0.00723653 3.18942e-10 1.17537e-09)
(0.0072369 -1.54084e-10 -1.9477e-09)
(0.00723657 6.87594e-10 2.71839e-09)
(0.00723681 2.57146e-10 -2.22559e-09)
(0.00723658 2.24214e-10 2.76582e-09)
(0.00723675 6.79702e-10 -2.77875e-09)
(0.00723665 3.3488e-10 3.65442e-09)
(0.00619158 2.88362e-05 0.000111547)
(0.00853145 1.68963e-06 7.1305e-06)
(0.00708088 -9.78526e-07 -4.27712e-06)
(0.00796298 5.77229e-07 2.5561e-06)
(0.00743068 -3.48017e-07 -1.53275e-06)
(0.0077523 2.1264e-07 9.14896e-07)
(0.00755827 -1.32626e-07 -5.45233e-07)
(0.00767429 8.1243e-08 3.20971e-07)
(0.00760601 -4.63237e-08 -1.82993e-07)
(0.00764542 2.55355e-08 1.02521e-07)
(0.00762327 -1.38855e-08 -5.50928e-08)
(0.00763533 7.01578e-09 2.88289e-08)
(0.00762905 -3.87129e-09 -1.49591e-08)
(0.00763212 9.84546e-10 7.14984e-09)
(0.00763062 -6.33372e-10 -3.97348e-09)
(0.00763134 2.92285e-10 2.25191e-09)
(0.007631 -2.23844e-10 -1.36733e-09)
(0.00763119 1.57134e-10 1.06236e-09)
(0.00763108 -1.17434e-10 -7.82247e-10)
(0.00763115 1.48475e-10 7.35321e-10)
(0.00763111 -1.28732e-10 -6.30758e-10)
(0.00763114 -4.29195e-11 3.61879e-10)
(0.00763111 4.44968e-11 -4.03751e-10)
(0.00763116 -8.7441e-11 1.58881e-10)
(0.00763108 1.26893e-10 -4.88765e-11)
(0.0076312 -1.21531e-10 -4.93798e-11)
(0.00763104 7.11639e-11 2.56015e-11)
(0.00763124 -3.05898e-10 -7.72344e-10)
(0.00763102 1.37344e-10 5.26057e-10)
(0.00763132 -2.66808e-10 -1.38715e-09)
(0.00763098 1.20301e-10 1.07243e-09)
(0.00763138 6.06146e-11 -1.9597e-09)
(0.00763102 2.40918e-10 2.83232e-09)
(0.00763129 1.95026e-10 -2.08175e-09)
(0.00763105 3.38589e-11 2.72966e-09)
(0.00763123 4.29944e-10 -2.65932e-09)
(0.00763114 -1.30445e-10 3.71362e-09)
(0.00619157 -2.8835e-05 0.000111547)
(0.00853145 -1.68988e-06 7.13054e-06)
(0.00708088 9.79327e-07 -4.27723e-06)
(0.00796298 -5.77653e-07 2.55618e-06)
(0.00743068 3.48686e-07 -1.53283e-06)
(0.0077523 -2.0989e-07 9.15029e-07)
(0.00755827 1.29342e-07 -5.45187e-07)
(0.00767428 -7.85727e-08 3.20861e-07)
(0.00760601 4.67602e-08 -1.83072e-07)
(0.00764542 -2.77217e-08 1.02596e-07)
(0.00762327 1.48998e-08 -5.51769e-08)
(0.00763533 -8.42127e-09 2.89122e-08)
(0.00762905 3.76729e-09 -1.49775e-08)
(0.00763212 -2.13439e-09 7.17612e-09)
(0.00763062 8.83507e-10 -3.96754e-09)
(0.00763134 -4.40564e-10 2.2578e-09)
(0.007631 2.26842e-10 -1.36868e-09)
(0.00763119 -1.42382e-10 1.05978e-09)
(0.00763108 1.0979e-10 -7.79864e-10)
(0.00763115 -9.02365e-11 7.29294e-10)
(0.00763111 7.86672e-11 -6.22614e-10)
(0.00763114 4.84077e-11 3.59599e-10)
(0.00763111 -4.29837e-11 -3.96153e-10)
(0.00763116 1.06094e-10 1.56558e-10)
(0.00763108 -8.86252e-11 -4.69614e-11)
(0.0076312 8.79672e-11 -5.3201e-11)
(0.00763104 1.64397e-11 3.71136e-11)
(0.00763124 2.40964e-10 -7.58111e-10)
(0.00763102 -4.39547e-11 5.3556e-10)
(0.00763132 3.12011e-10 -1.36513e-09)
(0.00763098 -7.60701e-12 1.08475e-09)
(0.00763138 3.24046e-10 -1.94708e-09)
(0.00763102 -4.14987e-10 2.79553e-09)
(0.00763129 -4.03156e-11 -2.09643e-09)
(0.00763105 -1.42669e-10 2.71977e-09)
(0.00763123 3.18641e-11 -2.6595e-09)
(0.00763114 -6.9937e-10 3.68786e-09)
(0.00587735 -8.40823e-05 0.000113295)
(0.00809191 -4.84392e-06 7.14682e-06)
(0.00671311 2.80971e-06 -4.27668e-06)
(0.00755233 -1.6615e-06 2.55607e-06)
(0.007046 1.00244e-06 -1.53244e-06)
(0.00735187 -6.06642e-07 9.14458e-07)
(0.00716737 3.73847e-07 -5.4394e-07)
(0.00727778 -2.26684e-07 3.19666e-07)
(0.00721267 1.32925e-07 -1.82528e-07)
(0.00725035 -7.66119e-08 1.02247e-07)
(0.00722909 4.14362e-08 -5.50742e-08)
(0.00724071 -2.24563e-08 2.88912e-08)
(0.00723464 1.07917e-08 -1.49685e-08)
(0.00723762 -4.98495e-09 7.21368e-09)
(0.00723616 2.24503e-09 -3.96187e-09)
(0.00723685 -1.15956e-09 2.2861e-09)
(0.00723653 6.94249e-10 -1.38689e-09)
(0.00723671 -4.44362e-10 1.06457e-09)
(0.00723661 3.51694e-10 -7.8877e-10)
(0.00723667 -3.09633e-10 7.25616e-10)
(0.00723664 2.50945e-10 -6.12914e-10)
(0.00723667 9.36888e-11 3.84685e-10)
(0.00723663 -1.38651e-10 -3.97563e-10)
(0.00723669 2.66784e-10 1.77093e-10)
(0.00723661 -2.97819e-10 -6.35269e-11)
(0.00723672 3.12953e-10 -4.31823e-11)
(0.00723658 -1.64696e-10 7.42462e-11)
(0.00723677 6.6496e-10 -6.85485e-10)
(0.00723656 -3.21236e-10 5.80514e-10)
(0.00723684 7.20332e-10 -1.2845e-09)
(0.00723653 -2.95442e-10 1.16965e-09)
(0.0072369 5.53957e-10 -1.9307e-09)
(0.00723656 -8.55635e-10 2.67934e-09)
(0.00723681 -3.68997e-12 -2.22777e-09)
(0.00723658 -3.73493e-10 2.74985e-09)
(0.00723675 -1.52246e-10 -2.76965e-09)
(0.00723665 -1.05747e-09 3.64292e-09)
(0.00519628 -0.000130163 0.000116749)
(0.00714241 -7.08488e-06 7.09656e-06)
(0.00592007 4.11896e-06 -4.23269e-06)
(0.00666515 -2.44507e-06 2.52978e-06)
(0.00621578 1.47405e-06 -1.51567e-06)
(0.00648713 -8.91072e-07 9.02712e-07)
(0.0063235 5.44451e-07 -5.358e-07)
(0.0064216 -3.27553e-07 3.14787e-07)
(0.0063635 1.91151e-07 -1.79702e-07)
(0.00639729 -1.09009e-07 1.00882e-07)
(0.0063781 5.91076e-08 -5.43336e-08)
(0.00638866 -3.15157e-08 2.86716e-08)
(0.00638309 1.54062e-08 -1.48259e-08)
(0.00638585 -7.07427e-09 7.34803e-09)
(0.0063845 3.28449e-09 -4.10536e-09)
(0.00638514 -1.75285e-09 2.26729e-09)
(0.00638485 1.11353e-09 -1.3652e-09)
(0.00638501 -7.39768e-10 1.07179e-09)
(0.00638492 5.87468e-10 -7.77121e-10)
(0.00638498 -4.90016e-10 7.41079e-10)
(0.00638494 3.7694e-10 -6.43418e-10)
(0.00638497 3.29322e-11 3.93961e-10)
(0.00638494 -1.4133e-10 -4.62869e-10)
(0.00638499 3.04471e-10 2.12757e-10)
(0.00638492 -3.97534e-10 -1.25681e-10)
(0.00638501 4.54764e-10 3.23152e-11)
(0.0063849 -3.74049e-10 -7.44168e-11)
(0.00638506 8.82183e-10 -7.11366e-10)
(0.00638489 -6.01288e-10 4.70341e-10)
(0.00638512 9.70029e-10 -1.39417e-09)
(0.00638488 -7.01708e-10 1.05045e-09)
(0.00638519 9.55964e-10 -2.04599e-09)
(0.00638491 -1.34138e-09 2.94531e-09)
(0.00638509 5.61926e-10 -2.18628e-09)
(0.00638491 -9.37043e-10 2.87159e-09)
(0.00638504 3.93478e-10 -2.9098e-09)
(0.00638495 -1.5651e-09 3.94748e-09)
(0.00400991 -0.000144073 0.000116935)
(0.00549757 -6.88635e-06 6.4962e-06)
(0.00455019 4.01561e-06 -3.86929e-06)
(0.00512842 -2.3928e-06 2.31437e-06)
(0.00477985 1.44052e-06 -1.38665e-06)
(0.0049902 -8.6694e-07 8.26191e-07)
(0.00486339 5.22205e-07 -4.9103e-07)
(0.00493964 -3.10662e-07 2.88962e-07)
(0.00489421 1.80468e-07 -1.65222e-07)
(0.00492081 -1.0199e-07 9.29045e-08)
(0.00490557 5.52742e-08 -5.00372e-08)
(0.00491402 -2.89771e-08 2.64148e-08)
(0.00490951 1.41922e-08 -1.35849e-08)
(0.00491177 -6.91786e-09 6.73156e-09)
(0.00491067 3.3103e-09 -3.72425e-09)
(0.00491119 -1.78091e-09 2.03999e-09)
(0.00491096 1.19236e-09 -1.23081e-09)
(0.00491108 -8.48687e-10 9.6819e-10)
(0.00491101 6.71755e-10 -7.03097e-10)
(0.00491106 -5.32778e-10 6.70111e-10)
(0.00491103 4.0328e-10 -5.83223e-10)
(0.00491106 -1.01315e-10 3.38534e-10)
(0.00491103 -5.0338e-12 -4.01556e-10)
(0.00491107 1.81262e-10 1.69659e-10)
(0.00491102 -2.96647e-10 -9.58991e-11)
(0.00491109 3.78375e-10 1.74176e-11)
(0.00491101 -3.77766e-10 -8.09394e-11)
(0.00491113 8.17322e-10 -6.7904e-10)
(0.00491102 -6.37909e-10 4.10718e-10)
(0.00491118 1.0412e-09 -1.29576e-09)
(0.00491102 -9.07278e-10 9.10728e-10)
(0.00491123 1.45523e-09 -1.86304e-09)
(0.00491104 -1.90545e-09 2.71045e-09)
(0.00491115 1.31577e-09 -1.89932e-09)
(0.00491102 -1.63118e-09 2.56126e-09)
(0.00491111 1.49945e-09 -2.56159e-09)
(0.00491103 -2.23466e-09 3.59729e-09)
(0.00196901 -7.38722e-05 7.38721e-05)
(0.00268885 -3.5994e-06 3.5997e-06)
(0.00222015 2.15825e-06 -2.15807e-06)
(0.00250617 -1.29636e-06 1.2962e-06)
(0.00233385 7.79737e-07 -7.7945e-07)
(0.00243778 -4.68237e-07 4.68928e-07)
(0.0023751 2.79772e-07 -2.83019e-07)
(0.00241294 -1.65848e-07 1.68579e-07)
(0.00239023 9.68253e-08 -9.76182e-08)
(0.00240363 -5.49681e-08 5.53046e-08)
(0.00239589 3.02458e-08 -3.00579e-08)
(0.00240021 -1.59804e-08 1.58594e-08)
(0.00239789 8.03457e-09 -8.09259e-09)
(0.00239907 -4.0732e-09 3.73411e-09)
(0.0023985 1.97958e-09 -1.89078e-09)
(0.00239876 -1.06218e-09 1.06451e-09)
(0.00239864 6.6257e-10 -6.48258e-10)
(0.0023987 -4.76489e-10 4.63035e-10)
(0.00239867 3.6214e-10 -3.52642e-10)
(0.00239869 -2.75571e-10 3.00238e-10)
(0.00239868 1.93586e-10 -2.32231e-10)
(0.0023987 -9.29888e-11 9.40115e-11)
(0.00239868 2.62007e-11 -3.90931e-11)
(0.0023987 5.99337e-11 -4.3325e-11)
(0.00239868 -1.21688e-10 1.05013e-10)
(0.00239871 1.71097e-10 -1.54083e-10)
(0.00239867 -2.19708e-10 1.70971e-10)
(0.00239873 3.54765e-10 -3.59897e-10)
(0.00239869 -3.66174e-10 3.27638e-10)
(0.00239876 5.16965e-10 -4.92267e-10)
(0.00239869 -5.56043e-10 4.81001e-10)
(0.00239879 8.33952e-10 -6.27912e-10)
(0.0023987 -1.00424e-09 8.35492e-10)
(0.00239874 8.97905e-10 -6.75689e-10)
(0.00239868 -9.69746e-10 8.27589e-10)
(0.00239872 1.06711e-09 -7.09712e-10)
(0.00239867 -1.22731e-09 1.098e-09)
(0.00400992 0.000116936 0.000144073)
(0.00549756 6.49621e-06 6.88662e-06)
(0.0045502 -3.86901e-06 -4.01535e-06)
(0.0051284 2.31421e-06 2.39262e-06)
(0.00477986 -1.38649e-06 -1.44012e-06)
(0.00499019 8.24895e-07 8.68708e-07)
(0.00486338 -4.89917e-07 -5.26841e-07)
(0.00493966 2.88734e-07 3.14489e-07)
(0.00489419 -1.64588e-07 -1.81623e-07)
(0.00492083 9.25663e-08 1.02113e-07)
(0.00490556 -4.97127e-08 -5.51141e-08)
(0.00491403 2.60635e-08 2.87395e-08)
(0.00490951 -1.3505e-08 -1.43842e-08)
(0.00491177 6.65128e-09 6.31754e-09)
(0.00491067 -3.74345e-09 -3.15064e-09)
(0.00491119 1.97856e-09 1.7709e-09)
(0.00491096 -1.18244e-09 -1.168e-09)
(0.00491108 9.59869e-10 8.28963e-10)
(0.00491101 -6.96002e-10 -6.50422e-10)
(0.00491106 6.7995e-10 5.58403e-10)
(0.00491103 -6.01433e-10 -4.34879e-10)
(0.00491106 3.26722e-10 9.67344e-11)
(0.00491103 -4.31963e-10 9.78976e-12)
(0.00491108 1.48352e-10 -1.65365e-10)
(0.00491102 -7.10723e-11 2.93463e-10)
(0.00491109 1.48128e-11 -3.7623e-10)
(0.00491101 -1.06739e-10 3.77199e-10)
(0.00491113 -8.32659e-10 -8.01736e-10)
(0.00491102 4.32812e-10 6.43429e-10)
(0.00491118 -1.60279e-09 -9.50823e-10)
(0.00491102 9.97309e-10 8.85052e-10)
(0.00491124 -2.17804e-09 -1.07313e-09)
(0.00491104 3.18123e-09 1.55409e-09)
(0.00491115 -2.00819e-09 -1.04756e-09)
(0.00491102 2.77359e-09 1.40121e-09)
(0.00491111 -2.7904e-09 -9.3868e-10)
(0.00491103 3.94474e-09 1.75908e-09)
(0.00910353 0.000249428 0.000249428)
(0.0125266 1.28726e-05 1.28727e-05)
(0.0103892 -7.42043e-06 -7.42046e-06)
(0.0116912 4.39533e-06 4.39536e-06)
(0.010906 -2.64873e-06 -2.64877e-06)
(0.0113799 1.60314e-06 1.60298e-06)
(0.0110944 -9.75002e-07 -9.74923e-07)
(0.0112655 5.82303e-07 5.82059e-07)
(0.0111641 -3.36748e-07 -3.36747e-07)
(0.0112232 1.88341e-07 1.88519e-07)
(0.0111895 -1.01568e-07 -1.01641e-07)
(0.0112081 5.24495e-08 5.25255e-08)
(0.0111982 -2.58077e-08 -2.58388e-08)
(0.0112032 1.08419e-08 1.09642e-08)
(0.0112007 -5.16619e-09 -5.24218e-09)
(0.0112019 3.05405e-09 3.0835e-09)
(0.0112014 -2.14233e-09 -2.14276e-09)
(0.0112017 1.53119e-09 1.52611e-09)
(0.0112015 -1.20706e-09 -1.20214e-09)
(0.0112016 9.85521e-10 9.81586e-10)
(0.0112015 -6.98108e-10 -6.95288e-10)
(0.0112016 1.26752e-10 1.24839e-10)
(0.0112015 2.16832e-10 2.18061e-10)
(0.0112016 -4.26182e-10 -4.29096e-10)
(0.0112015 7.07573e-10 7.07838e-10)
(0.0112017 -9.04211e-10 -9.04386e-10)
(0.0112015 1.03526e-09 1.03146e-09)
(0.0112017 -1.36099e-09 -1.35988e-09)
(0.0112014 1.35046e-09 1.34523e-09)
(0.0112018 -1.28984e-09 -1.30042e-09)
(0.0112014 1.66956e-09 1.67429e-09)
(0.0112019 -1.45101e-09 -1.47083e-09)
(0.0112015 1.98293e-09 1.99006e-09)
(0.0112018 -1.73596e-09 -1.76493e-09)
(0.0112015 2.0544e-09 2.08652e-09)
(0.0112017 -1.07734e-09 -1.10122e-09)
(0.0112016 2.16183e-09 2.1576e-09)
(0.0123223 0.000246176 0.000278362)
(0.016997 1.40643e-05 1.50161e-05)
(0.0141147 -8.03403e-06 -8.62534e-06)
(0.0158658 4.72307e-06 5.08391e-06)
(0.0148092 -2.8462e-06 -3.06375e-06)
(0.0154474 1.72442e-06 1.85419e-06)
(0.0150628 -1.05889e-06 -1.13034e-06)
(0.0152927 6.39973e-07 6.75339e-07)
(0.0151572 -3.71073e-07 -3.89109e-07)
(0.0152356 2.09935e-07 2.17196e-07)
(0.0151913 -1.14431e-07 -1.16283e-07)
(0.0152156 6.06708e-08 5.98769e-08)
(0.0152028 -3.09213e-08 -2.94051e-08)
(0.0152091 1.26396e-08 1.1947e-08)
(0.0152059 -6.5063e-09 -5.754e-09)
(0.0152075 3.2511e-09 3.50397e-09)
(0.0152068 -2.06937e-09 -2.44454e-09)
(0.0152072 1.43214e-09 1.75158e-09)
(0.015207 -1.05644e-09 -1.39276e-09)
(0.0152071 1.04492e-09 1.18758e-09)
(0.015207 -8.27813e-10 -8.9125e-10)
(0.0152071 -6.16473e-11 1.13367e-10)
(0.015207 1.90547e-10 2.12894e-10)
(0.0152071 -4.93025e-10 -4.96672e-10)
(0.015207 6.93347e-10 8.16104e-10)
(0.0152072 -7.76771e-10 -1.02841e-09)
(0.0152069 5.89232e-10 1.0645e-09)
(0.0152073 -1.7038e-09 -1.76826e-09)
(0.0152069 1.08274e-09 1.49386e-09)
(0.0152074 -1.77804e-09 -1.76169e-09)
(0.0152068 1.20022e-09 1.87977e-09)
(0.0152075 -9.73686e-10 -1.76818e-09)
(0.0152069 2.09469e-09 2.67634e-09)
(0.0152074 -3.66551e-10 -1.86545e-09)
(0.0152069 1.36358e-09 2.54102e-09)
(0.0152073 4.79537e-10 -1.03636e-09)
(0.0152071 1.57677e-09 2.88114e-09)
(0.0142319 0.000168768 0.000284259)
(0.0196625 1.01161e-05 1.56641e-05)
(0.0163418 -5.74398e-06 -9.01348e-06)
(0.0183546 3.3583e-06 5.29656e-06)
(0.0171396 -2.02536e-06 -3.19293e-06)
(0.0178738 1.23156e-06 1.93372e-06)
(0.0174312 -7.62405e-07 -1.18247e-06)
(0.0176952 4.63948e-07 7.08342e-07)
(0.0175403 -2.68776e-07 -4.08192e-07)
(0.0176294 1.51603e-07 2.28092e-07)
(0.0175795 -8.27843e-08 -1.21945e-07)
(0.0176067 4.37879e-08 6.29211e-08)
(0.0175924 -2.24939e-08 -3.083e-08)
(0.0175994 8.40238e-09 1.2252e-08)
(0.0175959 -4.44831e-09 -5.8785e-09)
(0.0175977 2.06575e-09 3.55523e-09)
(0.0175969 -1.3783e-09 -2.47803e-09)
(0.0175973 9.47043e-10 1.76409e-09)
(0.0175971 -6.85501e-10 -1.40533e-09)
(0.0175972 7.45569e-10 1.23088e-09)
(0.0175971 -6.00175e-10 -9.4337e-10)
(0.0175972 -1.55222e-10 3.30839e-11)
(0.0175971 2.33216e-10 2.68307e-10)
(0.0175972 -4.36427e-10 -5.87971e-10)
(0.017597 5.81044e-10 9.02758e-10)
(0.0175973 -6.11523e-10 -1.09424e-09)
(0.017597 4.01032e-10 1.03774e-09)
(0.0175974 -1.32709e-09 -1.97756e-09)
(0.0175969 7.28061e-10 1.50313e-09)
(0.0175976 -1.22645e-09 -1.9569e-09)
(0.0175968 6.60152e-10 1.83745e-09)
(0.0175977 -1.47597e-10 -1.72514e-09)
(0.0175968 1.11287e-09 2.8123e-09)
(0.0175975 4.9168e-10 -1.55126e-09)
(0.017597 3.92553e-10 2.42909e-09)
(0.0175974 1.48825e-09 -5.77113e-10)
(0.0175972 1.09894e-10 2.88786e-09)
(0.015124 5.94055e-05 0.000284625)
(0.0209119 3.61801e-06 1.57972e-05)
(0.0173873 -2.04742e-06 -9.11318e-06)
(0.0195209 1.19296e-06 5.34711e-06)
(0.0182327 -7.19091e-07 -3.22355e-06)
(0.0190113 4.39972e-07 1.95211e-06)
(0.0185418 -2.74507e-07 -1.19512e-06)
(0.0188215 1.67963e-07 7.16847e-07)
(0.0186579 -9.57644e-08 -4.13192e-07)
(0.0187518 5.23188e-08 2.31169e-07)
(0.0186993 -2.86654e-08 -1.23532e-07)
(0.0187277 1.46265e-08 6.38533e-08)
(0.018713 -7.86738e-09 -3.12746e-08)
(0.0187202 2.09651e-09 1.23615e-08)
(0.0187166 -1.4097e-09 -5.93589e-09)
(0.0187184 4.92965e-10 3.55498e-09)
(0.0187175 -4.52508e-10 -2.46502e-09)
(0.018718 3.56153e-10 1.75395e-09)
(0.0187177 -2.34488e-10 -1.3943e-09)
(0.0187179 3.25138e-10 1.2447e-09)
(0.0187178 -2.67427e-10 -9.68501e-10)
(0.0187178 -6.54864e-11 -1.73266e-13)
(0.0187178 7.60109e-11 2.72287e-10)
(0.0187179 -1.37368e-10 -6.16769e-10)
(0.0187177 2.21236e-10 9.17427e-10)
(0.018718 -2.27417e-10 -1.08812e-09)
(0.0187176 1.51178e-10 9.72959e-10)
(0.0187181 -5.48499e-10 -2.06332e-09)
(0.0187175 2.82983e-10 1.47076e-09)
(0.0187183 -4.36338e-10 -2.07162e-09)
(0.0187174 2.47382e-10 1.78885e-09)
(0.0187184 2.80262e-10 -1.74445e-09)
(0.0187175 3.1072e-10 2.93451e-09)
(0.0187182 4.31241e-10 -1.39968e-09)
(0.0187176 3.28324e-11 2.3986e-09)
(0.0187181 1.12921e-09 -4.23854e-10)
(0.0187179 -8.02086e-10 2.99425e-09)
(0.015124 -5.94037e-05 0.000284625)
(0.0209119 -3.61867e-06 1.57972e-05)
(0.0173873 2.04897e-06 -9.11318e-06)
(0.0195209 -1.19417e-06 5.34712e-06)
(0.0182327 7.21164e-07 -3.22353e-06)
(0.0190113 -4.33158e-07 1.95192e-06)
(0.0185418 2.65315e-07 -1.19486e-06)
(0.0188215 -1.606e-07 7.16622e-07)
(0.0186579 9.59411e-08 -4.13132e-07)
(0.0187518 -5.75388e-08 2.31237e-07)
(0.0186993 3.11096e-08 -1.23564e-07)
(0.0187277 -1.75349e-08 6.38373e-08)
(0.018713 8.25975e-09 -3.12887e-08)
(0.0187202 -4.6768e-09 1.23716e-08)
(0.0187166 1.93145e-09 -5.92114e-09)
(0.0187184 -1.11475e-09 3.57283e-09)
(0.0187175 5.25849e-10 -2.46902e-09)
(0.018718 -2.76969e-10 1.75474e-09)
(0.0187177 2.44988e-10 -1.3981e-09)
(0.0187179 -1.58654e-10 1.2413e-09)
(0.0187178 1.35425e-10 -9.63719e-10)
(0.0187178 7.22291e-11 6.59234e-12)
(0.0187178 -9.31277e-11 2.74595e-10)
(0.0187179 2.14649e-10 -6.17781e-10)
(0.0187177 -1.8757e-10 9.19804e-10)
(0.018718 1.84236e-10 -1.09016e-09)
(0.0187176 -3.62492e-11 9.85273e-10)
(0.0187181 4.26511e-10 -2.0539e-09)
(0.0187175 -1.50504e-10 1.4808e-09)
(0.0187183 5.80018e-10 -2.06497e-09)
(0.0187174 -1.19135e-10 1.80848e-09)
(0.0187184 7.46567e-10 -1.76818e-09)
(0.0187175 -7.6125e-10 2.92792e-09)
(0.0187182 1.33563e-10 -1.4376e-09)
(0.0187176 -3.17748e-10 2.41195e-09)
(0.0187181 4.8726e-10 -4.74049e-10)
(0.0187179 -1.75894e-09 3.04084e-09)
(0.0142318 -0.000168766 0.000284259)
(0.0196626 -1.01166e-05 1.56642e-05)
(0.0163417 5.7452e-06 -9.01347e-06)
(0.0183547 -3.35922e-06 5.29658e-06)
(0.0171396 2.02705e-06 -3.1929e-06)
(0.0178738 -1.22486e-06 1.93303e-06)
(0.0174312 7.52613e-07 -1.18161e-06)
(0.0176951 -4.55956e-07 7.0768e-07)
(0.0175404 2.68029e-07 -4.08008e-07)
(0.0176294 -1.55569e-07 2.2831e-07)
(0.0175795 8.4589e-08 -1.22047e-07)
(0.0176067 -4.60346e-08 6.29116e-08)
(0.0175924 2.26335e-08 -3.08749e-08)
(0.0175994 -1.07454e-08 1.2298e-08)
(0.0175959 4.9544e-09 -5.84907e-09)
(0.0175977 -2.56269e-09 3.59753e-09)
(0.0175969 1.46107e-09 -2.48082e-09)
(0.0175973 -8.88681e-10 1.76461e-09)
(0.0175971 7.14717e-10 -1.41121e-09)
(0.0175972 -6.04736e-10 1.22177e-09)
(0.0175971 4.89357e-10 -9.32626e-10)
(0.0175972 1.50054e-10 4.53155e-11)
(0.0175971 -2.4089e-10 2.69268e-10)
(0.0175972 5.03452e-10 -5.943e-10)
(0.017597 -5.5837e-10 9.09701e-10)
(0.0175973 5.79594e-10 -1.097e-09)
(0.017597 -3.18601e-10 1.0552e-09)
(0.0175974 1.24588e-09 -1.97484e-09)
(0.0175969 -6.36492e-10 1.52119e-09)
(0.0175976 1.40878e-09 -1.98386e-09)
(0.0175968 -6.08057e-10 1.88387e-09)
(0.0175977 1.20997e-09 -1.82866e-09)
(0.0175968 -1.68195e-09 2.86735e-09)
(0.0175975 1.50313e-10 -1.65203e-09)
(0.017597 -7.72193e-10 2.49285e-09)
(0.0175974 1.65622e-10 -7.352e-10)
(0.0175972 -2.45653e-09 3.07978e-09)
(0.0123223 -0.000246175 0.000278362)
(0.016997 -1.40643e-05 1.50163e-05)
(0.0141147 8.03476e-06 -8.62534e-06)
(0.0158659 -4.72358e-06 5.08393e-06)
(0.0148092 2.84738e-06 -3.06371e-06)
(0.0154474 -1.71836e-06 1.85315e-06)
(0.0150628 1.04797e-06 -1.1289e-06)
(0.0152926 -6.3074e-07 6.74305e-07)
(0.0151573 3.68795e-07 -3.88876e-07)
(0.0152355 -2.11667e-07 2.17547e-07)
(0.0151913 1.15218e-07 -1.16486e-07)
(0.0152156 -6.18151e-08 5.99207e-08)
(0.0152028 3.065e-08 -2.94918e-08)
(0.0152091 -1.45786e-08 1.20237e-08)
(0.0152059 6.99493e-09 -5.71365e-09)
(0.0152075 -3.53666e-09 3.5571e-09)
(0.0152068 2.18374e-09 -2.43821e-09)
(0.0152072 -1.41979e-09 1.74392e-09)
(0.015207 1.12329e-09 -1.39477e-09)
(0.0152071 -9.48153e-10 1.16875e-09)
(0.015207 7.4897e-10 -8.69782e-10)
(0.0152071 3.38687e-11 1.22431e-10)
(0.015207 -1.8627e-10 2.19078e-10)
(0.0152071 5.36025e-10 -5.1349e-10)
(0.015207 -6.82073e-10 8.33188e-10)
(0.0152072 7.61009e-10 -1.03678e-09)
(0.0152069 -5.59177e-10 1.09627e-09)
(0.0152073 1.66013e-09 -1.77783e-09)
(0.0152068 -1.03992e-09 1.53676e-09)
(0.0152074 1.9499e-09 -1.83662e-09)
(0.0152068 -1.22606e-09 1.98111e-09)
(0.0152075 2.00977e-09 -1.95067e-09)
(0.0152069 -2.77908e-09 2.79592e-09)
(0.0152074 1.08712e-09 -2.03873e-09)
(0.0152069 -1.84955e-09 2.6533e-09)
(0.0152073 1.18606e-09 -1.28804e-09)
(0.0152071 -3.44696e-09 3.16932e-09)
(0.0091035 -0.000249428 0.000249428)
(0.0125266 -1.28723e-05 1.28728e-05)
(0.0103892 7.41999e-06 -7.42031e-06)
(0.0116912 -4.39493e-06 4.39532e-06)
(0.0109059 2.64873e-06 -2.64876e-06)
(0.01138 -1.59767e-06 1.6017e-06)
(0.0110944 9.66094e-07 -9.73873e-07)
(0.0112655 -5.74996e-07 5.81712e-07)
(0.0111641 3.33074e-07 -3.36718e-07)
(0.0112232 -1.87437e-07 1.89115e-07)
(0.0111895 1.00581e-07 -1.01869e-07)
(0.0112081 -5.18917e-08 5.25939e-08)
(0.0111982 2.50719e-08 -2.5993e-08)
(0.0112032 -1.18344e-08 1.09481e-08)
(0.0112007 5.5705e-09 -5.18684e-09)
(0.0112019 -3.01704e-09 3.13731e-09)
(0.0112014 2.23215e-09 -2.10875e-09)
(0.0112016 -1.54018e-09 1.50809e-09)
(0.0112015 1.29679e-09 -1.19051e-09)
(0.0112016 -9.83949e-10 9.66827e-10)
(0.0112015 7.34057e-10 -6.8544e-10)
(0.0112016 -1.59784e-10 1.188e-10)
(0.0112015 -1.51724e-10 2.09342e-10)
(0.0112016 4.35434e-10 -4.53528e-10)
(0.0112015 -7.04728e-10 7.25851e-10)
(0.0112017 8.83013e-10 -9.03102e-10)
(0.0112015 -9.5731e-10 1.0128e-09)
(0.0112017 1.53108e-09 -1.42996e-09)
(0.0112014 -1.32121e-09 1.35693e-09)
(0.0112018 1.72503e-09 -1.48772e-09)
(0.0112014 -1.7526e-09 1.73772e-09)
(0.0112019 2.46668e-09 -1.69835e-09)
(0.0112015 -3.05959e-09 2.24868e-09)
(0.0112018 2.326e-09 -1.86599e-09)
(0.0112015 -2.68918e-09 2.21473e-09)
(0.0112017 2.47788e-09 -1.31711e-09)
(0.0112016 -3.60015e-09 2.61447e-09)
(0.00400991 -0.000116936 0.000144073)
(0.00549757 -6.49569e-06 6.88681e-06)
(0.00455019 3.86961e-06 -4.01528e-06)
(0.00512842 -2.31459e-06 2.39257e-06)
(0.00477984 1.38709e-06 -1.44002e-06)
(0.0049902 -8.2492e-07 8.68548e-07)
(0.00486339 4.85597e-07 -5.27669e-07)
(0.00493964 -2.84323e-07 3.15232e-07)
(0.00489421 1.63797e-07 -1.81924e-07)
(0.00492081 -9.22301e-08 1.02504e-07)
(0.00490557 5.02091e-08 -5.50959e-08)
(0.00491402 -2.66142e-08 2.86912e-08)
(0.00490951 1.33944e-08 -1.43879e-08)
(0.00491177 -7.45258e-09 6.2285e-09)
(0.00491067 3.97922e-09 -3.11341e-09)
(0.00491119 -2.02652e-09 1.80112e-09)
(0.00491096 1.25278e-09 -1.17135e-09)
(0.00491108 -9.96059e-10 8.30538e-10)
(0.00491101 7.20828e-10 -6.55206e-10)
(0.00491106 -6.36848e-10 5.67074e-10)
(0.00491103 5.30577e-10 -4.46831e-10)
(0.00491106 -3.36875e-10 1.11731e-10)
(0.00491103 3.89365e-10 2.05035e-12)
(0.00491107 -1.4414e-10 -1.59148e-10)
(0.00491102 7.4895e-11 2.83409e-10)
(0.00491109 6.12181e-12 -3.64845e-10)
(0.00491101 1.95429e-11 3.55987e-10)
(0.00491113 6.82659e-10 -7.79218e-10)
(0.00491102 -4.56821e-10 6.19835e-10)
(0.00491118 1.35776e-09 -9.18857e-10)
(0.00491101 -1.01035e-09 8.43476e-10)
(0.00491123 2.23404e-09 -1.02417e-09)
(0.00491104 -3.03833e-09 1.46862e-09)
(0.00491115 2.26155e-09 -9.8912e-10)
(0.00491102 -2.82434e-09 1.34407e-09)
(0.00491111 3.15687e-09 -8.69471e-10)
(0.00491103 -3.77822e-09 1.81624e-09)
(0.00519629 0.000116751 0.000130164)
(0.0071424 7.09664e-06 7.08488e-06)
(0.00592009 -4.23233e-06 -4.11845e-06)
(0.00666513 2.52942e-06 2.44478e-06)
(0.0062158 -1.51515e-06 -1.47355e-06)
(0.00648711 9.02229e-07 8.93538e-07)
(0.00632349 -5.35884e-07 -5.49099e-07)
(0.00642163 3.15054e-07 3.31305e-07)
(0.00636348 -1.79265e-07 -1.91938e-07)
(0.00639731 1.00362e-07 1.08387e-07)
(0.00637809 -5.39006e-08 -5.87277e-08)
(0.00638867 2.81738e-08 3.09066e-08)
(0.00638309 -1.47342e-08 -1.56308e-08)
(0.00638585 7.12609e-09 6.23396e-09)
(0.0063845 -4.02681e-09 -3.1013e-09)
(0.00638514 2.24113e-09 1.69777e-09)
(0.00638485 -1.35463e-09 -1.10047e-09)
(0.00638501 1.06249e-09 7.3107e-10)
(0.00638492 -7.89051e-10 -5.7183e-10)
(0.00638498 7.49088e-10 5.28709e-10)
(0.00638494 -6.51333e-10 -4.1621e-10)
(0.00638497 4.10452e-10 -3.7354e-11)
(0.00638494 -4.60715e-10 1.4638e-10)
(0.00638499 2.10349e-10 -2.84098e-10)
(0.00638492 -1.01941e-10 4.04251e-10)
(0.00638501 1.42274e-11 -4.61159e-10)
(0.0063849 -4.46141e-12 3.93946e-10)
(0.00638506 -7.39204e-10 -8.81242e-10)
(0.0063849 5.59992e-10 6.21127e-10)
(0.00638513 -1.46573e-09 -8.57487e-10)
(0.00638488 1.21111e-09 6.93962e-10)
(0.00638519 -2.13003e-09 -4.83642e-10)
(0.00638491 2.99404e-09 9.75612e-10)
(0.00638509 -2.32205e-09 -2.74211e-10)
(0.00638491 2.93706e-09 7.02869e-10)
(0.00638504 -2.99662e-09 2.25165e-10)
(0.00638495 3.93263e-09 8.56028e-10)
(0.0123223 0.000278362 0.000246176)
(0.016997 1.50161e-05 1.40644e-05)
(0.0141147 -8.62531e-06 -8.03416e-06)
(0.0158658 5.08388e-06 4.7232e-06)
(0.0148092 -3.06371e-06 -2.84636e-06)
(0.0154474 1.85444e-06 1.72424e-06)
(0.0150628 -1.1304e-06 -1.0589e-06)
(0.0152927 6.75627e-07 6.39604e-07)
(0.0151572 -3.89091e-07 -3.71226e-07)
(0.0152356 2.1693e-07 2.10424e-07)