/*--------------------------------*- C++ -*----------------------------------*\
  =========                 |
  \\      /  F ield         | OpenFOAM: The Open Source CFD Toolbox
   \\    /   O peration     | Website:  https://openfoam.org
    \\  /    A nd           | Version:  13
     \\/     M anipulation  |
\*---------------------------------------------------------------------------*/
FoamFile
{
    format      ascii;
    class       surfaceScalarField;
    location    "33";
    object      phi;
}
// * * * * * * * * * * * * * * * * * * * * * * * * * * * * * * * * * * * * * //

dimensions      [0 3 -1 0 0 0 0];

internalField   nonuniform List<scalar> 
3675
(
9.6291e-14
1.21956e-13
1.21956e-13
8.05942e-14
7.84875e-15
7.84878e-15
8.84026e-14
-3.9052e-15
-3.90526e-15
8.4478e-14
1.96307e-15
1.96308e-15
8.64444e-14
-9.84325e-16
-9.84348e-16
8.54638e-14
4.91544e-16
4.91628e-16
8.59486e-14
-2.43499e-16
-2.43563e-16
8.57125e-14
1.19338e-16
1.19359e-16
8.58261e-14
-5.75007e-17
-5.74542e-17
8.5772e-14
2.76531e-17
2.7617e-17
8.57983e-14
-1.32138e-17
-1.3192e-17
8.57851e-14
6.76163e-18
6.74871e-18
8.57932e-14
-3.87563e-18
-3.87718e-18
8.57873e-14
2.83195e-18
2.81137e-18
8.57926e-14
-2.38919e-18
-2.36765e-18
8.57877e-14
2.26016e-18
2.27161e-18
8.57927e-14
-2.20785e-18
-2.205e-18
8.57878e-14
2.18477e-18
2.19435e-18
8.57926e-14
-2.18094e-18
-2.17903e-18
8.57877e-14
2.16648e-18
2.17354e-18
8.57925e-14
-2.17058e-18
-2.16944e-18
8.57876e-14
2.24243e-18
2.12505e-18
8.57923e-14
-2.18219e-18
-2.06674e-18
8.57882e-14
1.83529e-18
1.83457e-18
8.57922e-14
-1.77939e-18
-1.79031e-18
8.57884e-14
1.67054e-18
1.66909e-18
8.57922e-14
-1.69021e-18
-1.70283e-18
1.67293e-18
1.68578e-18
1.74315e-13
1.0279e-13
1.85053e-13
1.6129e-13
7.93084e-15
1.29436e-14
1.67752e-13
-3.94142e-15
-6.43059e-15
1.64507e-13
1.98418e-15
3.22826e-15
1.6613e-13
-9.97572e-16
-1.61599e-15
1.65323e-13
5.00103e-16
8.046e-16
1.6572e-13
-2.49062e-16
-3.96652e-16
1.65529e-13
1.24337e-16
1.92461e-16
1.6562e-13
-6.00738e-17
-9.17884e-17
1.65578e-13
2.94157e-17
4.38205e-17
1.65599e-13
-1.33145e-17
-2.11755e-17
1.65588e-13
6.86092e-18
1.11997e-17
1.65595e-13
-3.17044e-18
-7.02952e-18
1.6559e-13
2.21592e-18
5.56928e-18
1.65595e-13
-1.37128e-18
-5.10256e-18
1.6559e-13
1.37882e-18
5.03351e-18
1.65596e-13
-1.11955e-18
-5.03484e-18
1.6559e-13
1.08399e-18
5.05524e-18
1.65595e-13
-1.09604e-18
-5.04488e-18
1.6559e-13
1.04994e-18
5.02574e-18
1.65595e-13
-1.11891e-18
-4.99933e-18
1.6559e-13
1.36004e-18
4.86632e-18
1.65595e-13
-1.50792e-18
-4.61255e-18
1.65591e-13
8.78616e-19
4.19872e-18
1.65595e-13
-1.08373e-18
-3.90447e-18
1.65591e-13
8.72169e-19
3.6237e-18
1.65595e-13
-9.92574e-19
-3.54812e-18
9.46271e-19
3.66794e-18
2.09744e-13
3.82075e-14
1.9504e-13
2.0025e-13
3.093e-15
1.43342e-14
2.04964e-13
-1.53713e-15
-7.1236e-15
2.026e-13
7.75577e-16
3.57601e-15
2.03779e-13
-3.91652e-16
-1.79049e-15
2.03197e-13
1.97095e-16
8.91964e-16
2.03481e-13
-9.88952e-17
-4.39582e-16
2.03347e-13
5.11157e-17
2.13454e-16
2.0341e-13
-2.4862e-17
-1.01292e-16
2.03381e-13
1.26321e-17
4.83838e-17
2.03396e-13
-5.2357e-18
-2.29293e-17
2.03388e-13
2.78253e-18
1.22275e-17
2.03394e-13
-8.0591e-19
-7.46967e-18
2.03389e-13
5.26251e-19
6.06078e-18
2.03395e-13
3.59119e-20
-5.39271e-18
2.0339e-13
1.32607e-20
5.48008e-18
2.03395e-13
2.08665e-19
-5.37318e-18
2.0339e-13
-2.21872e-19
5.40097e-18
2.03395e-13
2.03665e-19
-5.38144e-18
2.0339e-13
-2.40391e-19
5.35672e-18
2.03395e-13
1.58194e-19
-5.31464e-18
2.03389e-13
2.45046e-19
5.10981e-18
2.03394e-13
-3.74216e-19
-4.9966e-18
2.0339e-13
-1.77722e-19
4.34909e-18
2.03394e-13
4.1667e-20
-4.30556e-18
2.0339e-13
-1.61956e-19
3.87845e-18
2.03394e-13
9.15636e-20
-3.94222e-18
-1.38052e-19
3.94536e-18
2.20366e-13
-3.82097e-14
1.96253e-13
2.11935e-13
-3.09261e-15
1.4618e-14
2.16127e-13
1.53451e-15
-7.26811e-15
2.14027e-13
-7.71728e-16
3.65023e-15
2.15073e-13
3.86555e-16
-1.82895e-15
2.14558e-13
-1.93666e-16
9.12038e-16
2.14808e-13
9.57616e-17
-4.49807e-16
2.14691e-13
-4.52957e-17
2.18741e-16
2.14746e-13
2.14915e-17
-1.03585e-16
2.14721e-13
-9.78079e-18
4.9447e-17
2.14734e-13
4.96279e-18
-2.31251e-17
2.14727e-13
-2.26532e-18
1.22104e-17
2.14733e-13
1.5905e-18
-7.25772e-18
2.14728e-13
-1.04413e-18
5.85053e-18
2.14734e-13
1.0072e-18
-5.07511e-18
2.14729e-13
-9.87669e-19
5.23796e-18
2.14734e-13
1.00638e-18
-5.04713e-18
2.14729e-13
-9.94605e-19
5.07463e-18
2.14734e-13
9.47552e-19
-5.03102e-18
2.14729e-13
-9.88939e-19
5.02572e-18
2.14734e-13
9.24802e-19
-4.98493e-18
2.14728e-13
-4.81289e-19
4.79366e-18
2.14733e-13
5.27113e-19
-4.79153e-18
2.14729e-13
-7.61514e-19
4.02966e-18
2.14733e-13
9.22915e-19
-4.18847e-18
2.14729e-13
-8.60617e-19
3.69759e-18
2.14733e-13
9.86921e-19
-3.87572e-18
-1.01419e-18
3.88025e-18
2.09744e-13
-1.02792e-13
1.9504e-13
2.0025e-13
-7.93029e-15
1.43341e-14
2.04964e-13
3.93887e-15
-7.12321e-15
2.026e-13
-1.98122e-15
3.57585e-15
2.03779e-13
9.93621e-16
-1.79027e-15
2.03197e-13
-4.96915e-16
8.91546e-16
2.03481e-13
2.46211e-16
-4.39199e-16
2.03347e-13
-1.19781e-16
2.13207e-16
2.0341e-13
5.754e-17
-1.01209e-16
2.03381e-13
-2.72934e-17
4.82458e-17
2.03396e-13
1.32091e-17
-2.29788e-17
2.03388e-13
-6.48629e-18
1.22294e-17
2.03394e-13
3.85606e-18
-7.57518e-18
2.03389e-13
-2.66057e-18
6.13244e-18
2.03395e-13
2.29493e-18
-5.53708e-18
2.0339e-13
-2.15734e-18
5.58225e-18
2.03395e-13
2.12513e-18
-5.51085e-18
2.0339e-13
-2.08996e-18
5.53926e-18
2.03395e-13
2.05282e-18
-5.52369e-18
2.0339e-13
-2.06976e-18
5.49136e-18
2.03395e-13
2.04402e-18
-5.46824e-18
2.03389e-13
-1.80019e-18
5.23988e-18
2.03394e-13
1.80144e-18
-5.05587e-18
2.0339e-13
-1.72551e-18
4.52521e-18
2.03394e-13
1.82592e-18
-4.38177e-18
2.0339e-13
-1.71928e-18
4.01259e-18
2.03394e-13
1.83418e-18
-4.02648e-18
-1.84332e-18
4.0051e-18
1.74315e-13
-1.21957e-13
1.85053e-13
1.6129e-13
-7.84807e-15
1.29438e-14
1.67752e-13
3.90337e-15
-6.43092e-15
1.64507e-13
-1.96179e-15
3.22843e-15
1.6613e-13
9.82493e-16
-1.61616e-15
1.65323e-13
-4.89365e-16
8.04978e-16
1.6572e-13
2.41602e-16
-3.96931e-16
1.65529e-13
-1.17153e-16
1.92668e-16
1.6562e-13
5.63871e-17
-9.18276e-17
1.65578e-13
-2.67714e-17
4.37869e-17
1.65599e-13
1.31736e-17
-2.10559e-17
1.65588e-13
-6.52747e-18
1.11463e-17
1.65595e-13
4.15848e-18
-6.92436e-18
1.6559e-13
-3.00793e-18
5.50381e-18
1.65595e-13
2.83538e-18
-4.98248e-18
1.6559e-13
-2.52633e-18
4.97228e-18
1.65596e-13
2.61575e-18
-4.93954e-18
1.6559e-13
-2.58169e-18
4.9605e-18
1.65595e-13
2.55602e-18
-4.95325e-18
1.6559e-13
-2.57924e-18
4.92329e-18
1.65595e-13
2.53633e-18
-4.89292e-18
1.6559e-13
-2.73658e-18
4.65256e-18
1.65595e-13
2.56576e-18
-4.43893e-18
1.65591e-13
-2.19297e-18
4.0941e-18
1.65595e-13
2.06242e-18
-3.89097e-18
1.65591e-13
-2.04116e-18
3.60002e-18
1.65595e-13
2.0348e-18
-3.53363e-18
-2.04658e-18
3.60241e-18
9.6291e-14
1.21956e-13
8.05942e-14
7.84914e-15
8.84026e-14
-3.90596e-15
8.4478e-14
1.96324e-15
8.64444e-14
-9.84625e-16
8.54638e-14
4.92357e-16
8.59486e-14
-2.44107e-16
8.57125e-14
1.1975e-16
8.58261e-14
-5.75556e-17
8.5772e-14
2.76417e-17
8.57983e-14
-1.31437e-17
8.57851e-14
6.79719e-18
8.57932e-14
-3.83251e-18
8.57873e-14
2.79938e-18
8.57926e-14
-2.27198e-18
8.57877e-14
2.29009e-18
8.57927e-14
-2.1674e-18
8.57878e-14
2.16961e-18
8.57926e-14
-2.15287e-18
8.57877e-14
2.13846e-18
8.57925e-14
-2.13747e-18
8.57876e-14
1.90158e-18
8.57923e-14
-1.90379e-18
8.57882e-14
1.77951e-18
8.57922e-14
-1.80668e-18
8.57884e-14
1.63695e-18
8.57922e-14
-1.69659e-18
1.64223e-18
1.74315e-13
1.85053e-13
1.0279e-13
1.6129e-13
1.29433e-14
7.93123e-15
1.67752e-13
-6.43016e-15
-3.94191e-15
1.64507e-13
3.22837e-15
1.98408e-15
1.6613e-13
-1.61609e-15
-9.97486e-16
1.65323e-13
8.04157e-16
5.00639e-16
1.6572e-13
-3.96244e-16
-2.49536e-16
1.65529e-13
1.92515e-16
1.24284e-16
1.6562e-13
-9.19301e-17
-5.99011e-17
1.65578e-13
4.39606e-17
2.92359e-17
1.65599e-13
-2.1213e-17
-1.32582e-17
1.65588e-13
1.12047e-17
6.84321e-18
1.65595e-13
-6.99011e-18
-3.20426e-18
1.6559e-13
5.57193e-18
2.1975e-18
1.65595e-13
-5.11814e-18
-1.33903e-18
1.6559e-13
4.95267e-18
1.46192e-18
1.65596e-13
-4.99229e-18
-1.16041e-18
1.6559e-13
4.9839e-18
1.15504e-18
1.65595e-13
-5.00059e-18
-1.13973e-18
1.6559e-13
4.95959e-18
1.11333e-18
1.65595e-13
-4.96571e-18
-1.15253e-18
1.6559e-13
5.13206e-18
9.80627e-19
1.65595e-13
-4.84454e-18
-1.16272e-18
1.65591e-13
4.18305e-18
8.95462e-19
1.65595e-13
-3.83493e-18
-1.15586e-18
1.65591e-13
3.60152e-18
8.96182e-19
1.65595e-13
-3.49299e-18
-1.05388e-18
3.6211e-18
1.00713e-18
3.56932e-13
1.76685e-13
1.76685e-13
3.54411e-13
1.4206e-14
1.42069e-14
3.55631e-13
-7.04642e-15
-7.04742e-15
3.55011e-13
3.5434e-15
3.54301e-15
3.55327e-13
-1.78143e-15
-1.78103e-15
3.55165e-13
8.92833e-16
8.93997e-16
3.55249e-13
-4.45253e-16
-4.46345e-16
3.55206e-13
2.22841e-16
2.22546e-16
3.5523e-13
-1.08493e-16
-1.08097e-16
3.55219e-13
5.3401e-17
5.29448e-17
3.55225e-13
-2.47245e-17
-2.46113e-17
3.55224e-13
1.28397e-17
1.28087e-17
3.55225e-13
-6.07226e-18
-6.17956e-18
3.55226e-13
4.11508e-18
4.13676e-18
3.55225e-13
-2.63655e-18
-2.65046e-18
3.55227e-13
2.52948e-18
2.74947e-18
3.55225e-13
-2.13436e-18
-2.2942e-18
3.55228e-13
2.07876e-18
2.28505e-18
3.55225e-13
-2.12503e-18
-2.2892e-18
3.55227e-13
2.02205e-18
2.21416e-18
3.55225e-13
-2.20068e-18
-2.32673e-18
3.55226e-13
2.61215e-18
1.88747e-18
3.55225e-13
-2.65448e-18
-1.99953e-18
3.55227e-13
1.87639e-18
1.96066e-18
3.55225e-13
-1.77076e-18
-1.97189e-18
3.55226e-13
1.51145e-18
1.63451e-18
3.55225e-13
-1.57681e-18
-1.75626e-18
1.63242e-18
1.75986e-18
4.48658e-13
6.88449e-14
1.94421e-13
4.55275e-13
5.73144e-15
1.61957e-14
4.51966e-13
-2.8404e-15
-8.03336e-15
4.53627e-13
1.42992e-15
4.03752e-15
4.52793e-13
-7.213e-16
-2.0301e-15
4.53212e-13
3.62373e-16
1.01959e-15
4.53004e-13
-1.81929e-16
-5.08966e-16
4.53108e-13
9.41399e-17
2.53904e-16
4.5306e-13
-4.63124e-17
-1.22886e-16
4.53084e-13
2.37186e-17
6.0122e-17
4.53074e-13
-1.03082e-17
-2.76193e-17
4.53081e-13
5.64286e-18
1.44075e-17
4.53078e-13
-1.88156e-18
-6.77935e-18
4.53081e-13
1.24527e-18
4.57059e-18
4.5308e-13
-2.11377e-19
-2.75594e-18
4.53083e-13
2.43686e-19
3.04128e-18
4.53081e-13
1.04273e-19
-2.4177e-18
4.53083e-13
-1.28483e-19
2.42237e-18
4.53081e-13
6.39757e-20
-2.40741e-18
4.53083e-13
-1.57966e-19
2.32751e-18
4.5308e-13
-7.51814e-21
-2.44698e-18
4.53081e-13
8.00389e-19
1.78882e-18
4.5308e-13
-8.97987e-19
-2.06098e-18
4.53082e-13
-2.04019e-20
1.97894e-18
4.5308e-13
7.60317e-20
-2.251e-18
4.53081e-13
-2.74509e-19
1.74727e-18
4.5308e-13
2.41525e-19
-1.99688e-18
-1.55891e-19
1.9559e-18
4.76984e-13
-6.88479e-14
1.97161e-13
4.86437e-13
-5.73097e-15
1.6632e-14
4.81731e-13
2.8354e-15
-8.25114e-15
4.84096e-13
-1.42313e-15
4.14697e-15
4.82907e-13
7.11887e-16
-2.08547e-15
4.83505e-13
-3.55848e-16
1.04797e-15
4.83207e-13
1.75879e-16
-5.23207e-16
4.83357e-13
-8.33074e-17
2.60765e-16
4.83286e-13
4.00338e-17
-1.26064e-16
4.83321e-13
-1.82069e-17
6.14871e-17
4.83306e-13
9.61606e-18
-2.82094e-17
4.83316e-13
-4.3979e-18
1.46374e-17
4.83312e-13
3.32055e-18
-6.85665e-18
4.83315e-13
-2.15671e-18
4.59433e-18
4.83314e-13
2.27308e-18
-2.718e-18
4.83317e-13
-2.04895e-18
3.05532e-18
4.83315e-13
2.20222e-18
-2.39761e-18
4.83317e-13
-2.18019e-18
2.3964e-18
4.83315e-13
2.11587e-18
-2.37548e-18
4.83317e-13
-2.16854e-18
2.29361e-18
4.83315e-13
2.08159e-18
-2.40684e-18
4.83315e-13
-1.24868e-18
1.59612e-18
4.83314e-13
1.14459e-18
-1.92941e-18
4.83316e-13
-1.85175e-18
1.92815e-18
4.83314e-13
1.85813e-18
-2.31106e-18
4.83315e-13
-1.93682e-18
1.78094e-18
4.83314e-13
1.92425e-18
-2.08741e-18
-1.85138e-18
2.03818e-18
4.48658e-13
-1.76688e-13
1.94421e-13
4.55275e-13
-1.42051e-14
1.61958e-14
4.51966e-13
7.04162e-15
-8.03284e-15
4.53627e-13
-3.53799e-15
4.03657e-15
4.52793e-13
1.77374e-15
-2.0288e-15
4.53212e-13
-8.86557e-16
1.01881e-15
4.53004e-13
4.3947e-16
-5.08173e-16
4.53108e-13
-2.13886e-16
2.52459e-16
4.5306e-13
1.03373e-16
-1.22087e-16
4.53084e-13
-4.90437e-17
5.93038e-17
4.53074e-13
2.41519e-17
-2.75318e-17
4.53081e-13
-1.17417e-17
1.42826e-17
4.53078e-13
7.19862e-18
-6.97282e-18
4.53081e-13
-4.82551e-18
4.7347e-18
4.5308e-13
4.33177e-18
-3.04298e-18
4.53083e-13
-3.88569e-18
3.31172e-18
4.53081e-13
3.92864e-18
-2.76544e-18
4.53083e-13
-3.8736e-18
2.74742e-18
4.53081e-13
3.79656e-18
-2.74728e-18
4.53083e-13
-3.84984e-18
2.64918e-18
4.5308e-13
3.78604e-18
-2.75867e-18
4.53082e-13
-3.48323e-18
1.8471e-18
4.5308e-13
3.3477e-18
-2.08756e-18
4.53082e-13
-3.30336e-18
2.25856e-18
4.5308e-13
3.28458e-18
-2.51622e-18
4.53081e-13
-3.24643e-18
2.05433e-18
4.5308e-13
3.29141e-18
-2.28725e-18
-3.22226e-18
2.25658e-18
3.56932e-13
-1.85054e-13
1.76686e-13
3.54411e-13
-1.29425e-14
1.42067e-14
3.55631e-13
6.42757e-15
-7.0465e-15
3.55011e-13
-3.22623e-15
3.54162e-15
3.55327e-13
1.61289e-15
-1.77914e-15
3.55165e-13
-8.00823e-16
8.9273e-16
3.55249e-13
3.93174e-16
-4.45013e-16
3.55206e-13
-1.88712e-16
2.20447e-16
3.5523e-13
8.9834e-17
-1.06845e-16
3.55219e-13
-4.226e-17
5.17436e-17
3.55225e-13
2.0992e-17
-2.44018e-17
3.55224e-13
-1.0678e-17
1.25776e-17
3.55225e-13
7.44418e-18
-6.39712e-18
3.55226e-13
-5.85426e-18
4.32142e-18
3.55225e-13
5.88025e-18
-2.98737e-18
3.55227e-13
-5.43825e-18
3.09972e-18
3.55225e-13
5.70777e-18
-2.72641e-18
3.55228e-13
-5.68574e-18
2.69721e-18
3.55225e-13
5.64973e-18
-2.70482e-18
3.55227e-13
-5.68893e-18
2.61985e-18
3.55225e-13
5.59278e-18
-2.70383e-18
3.55226e-13
-5.84525e-18
1.90545e-18
3.55225e-13
5.45425e-18
-2.00367e-18
3.55227e-13
-4.7564e-18
2.28112e-18
3.55225e-13
4.42872e-18
-2.35677e-18
3.55226e-13
-4.30414e-18
2.03678e-18
3.55225e-13
4.169e-18
-2.16745e-18
-4.26291e-18
2.18864e-18
1.74315e-13
1.02791e-13
1.6129e-13
7.93113e-15
1.67752e-13
-3.94125e-15
1.64507e-13
1.983e-15
1.6613e-13
-9.96129e-16
1.65323e-13
4.99748e-16
1.6572e-13
-2.48693e-16
1.65529e-13
1.22825e-16
1.6562e-13
-5.91148e-17
1.65578e-13
2.84731e-17
1.65599e-13
-1.3238e-17
1.65588e-13
6.785e-18
1.65595e-13
-3.45098e-18
1.6559e-13
2.39849e-18
1.65595e-13
-1.65293e-18
1.6559e-13
1.77925e-18
1.65596e-13
-1.53644e-18
1.6559e-13
1.53049e-18
1.65595e-13
-1.50927e-18
1.6559e-13
1.4864e-18
1.65595e-13
-1.49922e-18
1.6559e-13
1.1416e-18
1.65595e-13
-1.28602e-18
1.65591e-13
1.20329e-18
1.65595e-13
-1.43034e-18
1.65591e-13
1.19335e-18
1.65595e-13
-1.34929e-18
1.31698e-18
2.09744e-13
1.9504e-13
3.82076e-14
2.0025e-13
1.43337e-14
3.09361e-15
2.04964e-13
-7.12307e-15
-1.53777e-15
2.026e-13
3.5762e-15
7.75182e-16
2.03779e-13
-1.79066e-15
-3.91213e-16
2.03197e-13
8.91411e-16
1.97738e-16
2.03481e-13
-4.39053e-16
-9.94744e-17
2.03347e-13
2.13547e-16
5.07251e-17
2.0341e-13
-1.01448e-16
-2.45187e-17
2.03381e-13
4.855e-17
1.22337e-17
2.03396e-13
-2.29641e-17
-5.16061e-18
2.03388e-13
1.22154e-17
2.75573e-18
2.03394e-13
-7.41756e-18
-8.88699e-19
2.03389e-13
6.04682e-18
5.53393e-19
2.03395e-13
-5.39359e-18
8.07282e-21
2.0339e-13
5.37814e-18
1.74911e-19
2.03395e-13
-5.30295e-18
6.83387e-20
2.0339e-13
5.30776e-18
-6.77179e-20
2.03395e-13
-5.30857e-18
6.14809e-20
2.0339e-13
5.26938e-18
-9.61399e-20
2.03395e-13
-5.25994e-18
4.12615e-20
2.03389e-13
5.42851e-18
-2.42161e-19
2.03394e-13
-5.27618e-18
6.31517e-20
2.0339e-13
4.31786e-18
-9.65768e-20
2.03394e-13
-4.21958e-18
-1.01501e-19
2.0339e-13
3.84327e-18
-6.7703e-20
2.03394e-13
-3.87729e-18
-3.1296e-20
3.88308e-18
9.90678e-21
4.48658e-13
1.94421e-13
6.88451e-14
4.55275e-13
1.61946e-14
5.73264e-15
4.51966e-13
-8.03206e-15
-2.84169e-15
4.53627e-13
4.03806e-15
1.42926e-15
4.52793e-13
-2.03065e-15
-7.20577e-16
4.53212e-13
1.01814e-15
3.63898e-16
4.53004e-13
-5.07626e-16
-1.8333e-16
4.53108e-13
2.5432e-16
9.35383e-17
4.5306e-13
-1.23422e-16
-4.57253e-17
4.53084e-13
6.0729e-17
2.29686e-17
4.53074e-13
-2.77607e-17
-1.01383e-17
4.53081e-13
1.44422e-17
5.56905e-18
4.53078e-13
-6.63452e-18
-2.03169e-18
4.53081e-13
4.54776e-18
1.28971e-18
4.5308e-13
-2.74604e-18
-2.65383e-19
4.53083e-13
2.74927e-18
5.53003e-19
4.53081e-13
-2.20369e-18
-1.53758e-19
4.53083e-13
2.15266e-18
1.64027e-19
4.53081e-13
-2.18753e-18
-1.98765e-19
4.53083e-13
2.07644e-18
1.14132e-19
4.5308e-13
-2.26474e-18
-2.26477e-19
4.53081e-13
2.75019e-18
-2.35089e-19
4.5308e-13
-2.92893e-18
5.06944e-20
4.53082e-13
1.85392e-18
1.41877e-19
4.5308e-13
-1.99131e-18
-2.11384e-19
4.53081e-13
1.59926e-18
-6.83416e-20
4.5308e-13
-1.77443e-18
-1.81874e-20
1.75803e-18
6.27674e-20
5.74023e-13
7.75084e-14
7.75086e-14
5.93145e-13
6.63523e-15
6.63679e-15
5.83645e-13
-3.28779e-15
-3.28949e-15
5.8842e-13
1.65472e-15
1.65388e-15
5.86016e-13
-8.35083e-16
-8.34167e-16
5.87227e-13
4.19938e-16
4.21828e-16
5.86621e-13
-2.10818e-16
-2.12546e-16
5.86926e-13
1.09263e-16
1.085e-16
5.86779e-13
-5.35728e-17
-5.28199e-17
5.86852e-13
2.73427e-17
2.64133e-17
5.8682e-13
-1.16836e-17
-1.14833e-17
5.86838e-13
6.38828e-18
6.31021e-18
5.8683e-13
-1.98757e-18
-2.17887e-18
5.86836e-13
1.33044e-18
1.38433e-18
5.86834e-13
-7.34825e-20
-1.26513e-19
5.86837e-13
1.71889e-19
5.6348e-19
5.86835e-13
2.70746e-19
-4.45805e-20
5.86837e-13
-3.11442e-19
5.83079e-20
5.86835e-13
2.27221e-19
-9.41579e-20
5.86837e-13
-3.55493e-19
-1.10808e-20
5.86835e-13
1.41112e-19
-1.14989e-19
5.86835e-13
6.83373e-19
-5.79434e-19
5.86834e-13
-8.66707e-19
2.7383e-19
5.86836e-13
-1.82319e-19
-2.98179e-21
5.86834e-13
1.176e-19
-2.39491e-19
5.86835e-13
-3.6749e-19
-1.36273e-19
5.86833e-13
2.94195e-19
-1.55198e-20
-2.65455e-19
3.60482e-20
6.13348e-13
-7.75132e-14
7.90331e-14
6.36411e-13
-6.63468e-15
6.84374e-15
6.2497e-13
3.2817e-15
-3.39221e-15
6.30721e-13
-1.64668e-15
1.70512e-15
6.27825e-13
8.24007e-16
-8.59807e-16
6.29284e-13
-4.11958e-16
4.34943e-16
6.28553e-13
2.03665e-16
-2.1897e-16
6.28922e-13
-9.63677e-17
1.11334e-16
6.28744e-13
4.6178e-17
-5.40765e-17
6.28832e-13
-2.11046e-17
2.6785e-17
6.28793e-13
1.10553e-17
-1.17263e-17
6.28814e-13
-5.03023e-18
6.40221e-18
6.28805e-13
3.77125e-18
-2.28351e-18
6.28811e-13
-2.4247e-18
1.45847e-18
6.28809e-13
2.54194e-18
-1.94583e-19
6.28813e-13
-2.2996e-18
6.81358e-19
6.28811e-13
2.4527e-18
-1.59043e-19
6.28813e-13
-2.43685e-18
1.65995e-19
6.28811e-13
2.3386e-18
-2.05552e-19
6.28813e-13
-2.43238e-18
8.85261e-20
6.2881e-13
2.30887e-18
-2.18629e-19
6.28811e-13
-1.43966e-18
-6.81807e-19
6.2881e-13
1.35814e-18
3.54217e-19
6.28811e-13
-2.02737e-18
7.97586e-20
6.28809e-13
2.09028e-18
-3.69173e-19
6.2881e-13
-2.12881e-18
-2.13213e-20
6.28808e-13
2.19303e-18
-1.55826e-19
-2.16002e-18
1.72623e-19
5.74023e-13
-1.94425e-13
7.75095e-14
5.93145e-13
-1.61936e-14
6.63667e-15
5.83645e-13
8.02613e-15
-3.28856e-15
5.8842e-13
-4.03152e-15
1.65249e-15
5.86016e-13
2.02153e-15
-8.32348e-16
5.87227e-13
-1.01055e-15
4.20556e-16
5.86621e-13
5.00907e-16
-2.11255e-16
5.86926e-13
-2.43658e-16
1.06559e-16
5.86779e-13
1.17504e-16
-5.17665e-17
5.86852e-13
-5.58246e-17
2.53321e-17
5.8682e-13
2.73623e-17
-1.13908e-17
5.86838e-13
-1.33286e-17
6.18955e-18
5.8683e-13
8.13643e-18
-2.4651e-18
5.86836e-13
-5.48597e-18
1.64531e-18
5.86834e-13
4.89589e-18
-5.40567e-19
5.86837e-13
-4.43932e-18
9.69109e-19
5.86835e-13
4.454e-18
-5.48561e-19
5.86837e-13
-4.40245e-18
5.34601e-19
5.86835e-13
4.29287e-18
-5.88318e-19
5.86837e-13
-4.37714e-18
4.59905e-19
5.86835e-13
4.28436e-18
-5.75068e-19
5.86835e-13
-3.93438e-18
-3.9513e-19
5.86834e-13
3.82958e-18
1.31788e-19
5.86836e-13
-3.69481e-18
3.99202e-19
5.86834e-13
3.7563e-18
-6.25988e-19
5.86835e-13
-3.64007e-18
2.83065e-19
5.86833e-13
3.76006e-18
-4.11987e-19
-3.7258e-18
4.53449e-19
4.48658e-13
-1.95042e-13
6.88453e-14
4.55275e-13
-1.43329e-14
5.73247e-15
4.51966e-13
7.11971e-15
-2.84064e-15
4.53627e-13
-3.57332e-15
1.42766e-15
4.52793e-13
1.7865e-15
-7.18375e-16
4.53212e-13
-8.87132e-16
3.62387e-16
4.53004e-13
4.35303e-16
-1.81722e-16
4.53108e-13
-2.08623e-16
9.1094e-17
4.5306e-13
9.88898e-17
-4.42852e-17
4.53084e-13
-4.64685e-17
2.15528e-17
4.53074e-13
2.2871e-17
-9.89703e-18
4.53081e-13
-1.16926e-17
5.29775e-18
4.53078e-13
8.13082e-18
-2.29268e-18
4.53081e-13
-6.51281e-18
1.52327e-18
4.5308e-13
6.48826e-18
-6.82382e-19
4.53083e-13
-6.10008e-18
9.70117e-19
4.53081e-13
6.34461e-18
-6.74175e-19
4.53083e-13
-6.32735e-18
6.55244e-19
4.53081e-13
6.27204e-18
-7.00342e-19
4.53083e-13
-6.32685e-18
5.97487e-19
4.5308e-13
6.19086e-18
-6.80422e-19
4.53082e-13
-6.4688e-18
-1.41456e-19
4.5308e-13
6.13033e-18
-2.40983e-20
4.53082e-13
-5.18693e-18
5.28965e-19
4.5308e-13
4.98546e-18
-6.65368e-19
4.53081e-13
-4.77207e-18
4.08232e-19
4.5308e-13
4.73389e-18
-4.96171e-19
-4.77291e-18
5.74815e-19
2.09744e-13
3.82086e-14
2.0025e-13
3.09314e-15
2.04964e-13
-1.53667e-15
2.026e-13
7.73816e-16
2.03779e-13
-3.89465e-16
2.03197e-13
1.96381e-16
2.03481e-13
-9.81417e-17
2.03347e-13
4.88655e-17
2.0341e-13
-2.35092e-17
2.03381e-13
1.12348e-17
2.03396e-13
-5.0635e-18
2.03388e-13
2.61438e-18
2.03394e-13
-1.12816e-18
2.03389e-13
7.50572e-19
2.03395e-13
-3.26728e-19
2.0339e-13
4.97894e-19
2.03395e-13
-3.27461e-19
2.0339e-13
3.2215e-19
2.03395e-13
-3.2387e-19
2.0339e-13
2.89594e-19
2.03395e-13
-3.18459e-19
2.03389e-13
-4.70642e-20
2.03394e-13
-8.46151e-20
2.0339e-13
2.24769e-19
2.03394e-13
-4.04159e-19
2.0339e-13
2.68212e-19
2.03394e-13
-3.80132e-19
3.63495e-19
2.20366e-13
1.96253e-13
-3.82096e-14
2.11935e-13
1.46176e-14
-3.09195e-15
2.16127e-13
-7.26766e-15
1.53384e-15
2.14027e-13
3.65041e-15
-7.72187e-16
2.15073e-13
-1.82912e-15
3.87072e-16
2.14558e-13
9.11539e-16
-1.92999e-16
2.14808e-13
-4.4933e-16
9.51559e-17
2.14691e-13
2.18857e-16
-4.57459e-17
2.14746e-13
-1.0374e-16
2.1812e-17
2.14721e-13
4.96188e-17
-1.0196e-17
2.14734e-13
-2.31543e-17
5.02123e-18
2.14727e-13
1.22079e-17
-2.28216e-18
2.14733e-13
-7.19824e-18
1.4946e-18
2.14728e-13
5.82479e-18
-9.84328e-19
2.14734e-13
-5.0531e-18
9.40169e-19
2.14729e-13
5.13202e-18
-8.12846e-19
2.14734e-13
-4.96995e-18
8.39317e-19
2.14729e-13
4.97017e-18
-8.20407e-19
2.14734e-13
-4.95162e-18
7.78689e-19
2.14729e-13
4.92578e-18
-8.23229e-19
2.14734e-13
-4.93086e-18
7.93027e-19
2.14728e-13
5.02827e-18
-8.99496e-19
2.14733e-13
-4.99534e-18
8.97439e-19
2.14729e-13
3.99583e-18
-6.68185e-19
2.14733e-13
-4.09845e-18
7.70932e-19
2.14729e-13
3.6507e-18
-7.54317e-19
2.14733e-13
-3.80447e-18
8.65057e-19
3.8151e-18
-8.49323e-19
4.76984e-13
1.97161e-13
-6.88477e-14
4.86437e-13
1.66307e-14
-5.72995e-15
4.81731e-13
-8.2497e-15
2.83435e-15
4.84096e-13
4.14758e-15
-1.42381e-15
4.82907e-13
-2.0861e-15
7.12676e-16
4.83505e-13
1.04638e-15
-3.546e-16
4.83207e-13
-5.21746e-16
1.74747e-16
4.83357e-13
2.61265e-16
-8.40028e-17
4.83286e-13
-1.2667e-16
4.05856e-17
4.83321e-13
6.21792e-17
-1.89697e-17
4.83306e-13
-2.83668e-17
9.78066e-18
4.83316e-13
1.46852e-17
-4.49484e-18
4.83312e-13
-6.69766e-18
3.19147e-18
4.83315e-13
4.56371e-18
-2.11709e-18
4.83314e-13
-2.69838e-18
2.20822e-18
4.83317e-13
2.73333e-18
-1.78064e-18
4.83315e-13
-2.16145e-18
1.95198e-18
4.83317e-13
2.09348e-18
-1.92453e-18
4.83315e-13
-2.13304e-18
1.86355e-18
4.83317e-13
2.01114e-18
-1.93133e-18
4.83315e-13
-2.21784e-18
1.8624e-18
4.83315e-13
2.63671e-18
-2.21143e-18
4.83314e-13
-2.86715e-18
2.03496e-18
4.83316e-13
1.80144e-18
-1.68254e-18
4.83314e-13
-2.02293e-18
1.60175e-18
4.83315e-13
1.61565e-18
-1.73052e-18
4.83314e-13
-1.83922e-18
1.6883e-18
1.81e-18
-1.62901e-18
6.13348e-13
7.90329e-14
-7.75129e-14
6.36411e-13
6.8421e-15
-6.63336e-15
6.2497e-13
-3.39043e-15
3.28035e-15
6.30721e-13
1.70603e-15
-1.64758e-15
6.27825e-13
-8.60801e-16
8.25036e-16
6.29284e-13
4.32969e-16
-4.1047e-16
6.28553e-13
-2.17173e-16
2.02322e-16
6.28922e-13
1.12167e-16
-9.72664e-17
6.28744e-13
-5.48902e-17
4.69002e-17
6.28832e-13
2.77845e-17
-2.20464e-17
6.28793e-13
-1.19337e-17
1.12363e-17
6.28814e-13
6.47665e-18
-5.11922e-18
6.28805e-13
-2.06859e-18
3.57948e-18
6.28811e-13
1.39315e-18
-2.34852e-18
6.28809e-13
-1.25994e-19
2.43988e-18
6.28813e-13
2.51444e-19
-1.92832e-18
6.28811e-13
1.96174e-19
2.11676e-18
6.28813e-13
-2.41012e-19
-2.07704e-18
6.28811e-13
1.57147e-19
1.99942e-18
6.28813e-13
-2.91656e-19
-2.09428e-18
6.2881e-13
8.28042e-20
2.01973e-18
6.28811e-13
6.74497e-19
-2.52752e-18
6.2881e-13
-8.77028e-19
2.34911e-18
6.28811e-13
-1.37295e-19
-1.80994e-18
6.28809e-13
1.56379e-20
1.7494e-18
6.2881e-13
-2.75501e-19
-1.88184e-18
6.28808e-13
1.7727e-19
1.89764e-18
-1.62088e-19
-1.84512e-18
6.56339e-13
-7.90373e-14
-7.9037e-14
6.83711e-13
-6.84156e-15
-6.84014e-15
6.70149e-13
3.38466e-15
3.38319e-15
6.76966e-13
-1.6987e-15
-1.69962e-15
6.73532e-13
8.507e-16
8.51736e-16
6.75263e-13
-4.25567e-16
-4.23961e-16
6.74395e-13
2.10743e-16
2.09296e-16
6.74833e-13
-1.00261e-16
-1.01158e-16
6.74621e-13
4.80519e-17
4.88194e-17
6.74726e-13
-2.22454e-17
-2.32142e-17
6.74679e-13
1.14366e-17
1.16314e-17
6.74704e-13
-5.22065e-18
-5.30997e-18
6.74694e-13
3.749e-18
3.55269e-18
6.74701e-13
-2.35426e-18
-2.28718e-18
6.74698e-13
2.40742e-18
2.32277e-18
6.74702e-13
-2.17322e-18
-1.78599e-18
6.747e-13
2.27752e-18
1.94107e-18
6.74702e-13
-2.28205e-18
-1.91071e-18
6.747e-13
2.15733e-18
1.81694e-18
6.74702e-13
-2.28105e-18
-1.93347e-18
6.747e-13
2.14437e-18
1.85618e-18
6.747e-13
-1.34098e-18
-2.52307e-18
6.74699e-13
1.28684e-18
2.36102e-18
6.747e-13
-1.87996e-18
-1.6672e-18
6.74698e-13
1.97814e-18
1.62349e-18
6.74699e-13
-1.98725e-18
-1.74296e-18
6.74697e-13
2.08582e-18
1.77872e-18
-2.04636e-18
-1.72201e-18
6.13348e-13
-1.97164e-13
-7.75121e-14
6.36411e-13
-1.66298e-14
-6.63344e-15
6.2497e-13
8.24415e-15
3.28103e-15
6.30721e-13
-4.14161e-15
-1.64872e-15
6.27825e-13
2.07766e-15
8.26584e-16
6.29284e-13
-1.03929e-15
-4.11512e-16
6.28553e-13
5.1557e-16
2.03439e-16
6.28922e-13
-2.51232e-16
-9.89274e-17
6.28744e-13
1.21055e-16
4.78385e-17
6.28832e-13
-5.76532e-17
-2.30303e-17
6.28793e-13
2.79549e-17
1.13858e-17
6.28814e-13
-1.35348e-17
-5.27718e-18
6.28805e-13
8.04715e-18
3.38669e-18
6.28811e-13
-5.33272e-18
-2.16253e-18
6.28809e-13
4.63605e-18
2.13841e-18
6.28813e-13
-4.19881e-18
-1.62125e-18
6.28811e-13
4.14412e-18
1.74026e-18
6.28813e-13
-4.09601e-18
-1.72063e-18
6.28811e-13
3.9675e-18
1.63105e-18
6.28813e-13
-4.07013e-18
-1.7441e-18
6.2881e-13
3.97563e-18
1.68697e-18
6.28811e-13
-3.6559e-18
-2.39653e-18
6.2881e-13
3.62806e-18
2.235e-18
6.28811e-13
-3.41501e-18
-1.52504e-18
6.28809e-13
3.59552e-18
1.43592e-18
6.2881e-13
-3.44708e-18
-1.55273e-18
6.28808e-13
3.65463e-18
1.56473e-18
-3.61913e-18
-1.49399e-18
4.76984e-13
-1.96255e-13
-6.88473e-14
4.86437e-13
-1.46169e-14
-5.73059e-15
4.81731e-13
7.26473e-15
2.83624e-15
4.84096e-13
-3.64794e-15
-1.42621e-15
4.82907e-13
1.82539e-15
7.16002e-16
4.83505e-13
-9.07807e-16
-3.57343e-16
4.83207e-13
4.46118e-16
1.77726e-16
4.83357e-13
-2.14299e-16
-8.76067e-17
4.83286e-13
1.01356e-16
4.268e-17
4.83321e-13
-4.76701e-17
-2.10889e-17
4.83306e-13
2.29817e-17
1.01809e-17
4.83316e-13
-1.15649e-17
-4.91533e-18
4.83312e-13
7.75096e-18
2.82028e-18
4.83315e-13
-6.11639e-18
-1.76803e-18
4.83314e-13
5.95774e-18
1.59599e-18
4.83317e-13
-5.62692e-18
-1.16562e-18
4.83315e-13
5.77177e-18
1.22398e-18
4.83317e-13
-5.74826e-18
-1.20769e-18
4.83315e-13
5.67419e-18
1.1541e-18
4.83317e-13
-5.74347e-18
-1.23313e-18
4.83315e-13
5.60893e-18
1.18794e-18
4.83315e-13
-5.85588e-18
-1.76275e-18
4.83314e-13
5.65325e-18
1.64633e-18
4.83316e-13
-4.66319e-18
-1.08486e-18
4.83314e-13
4.68309e-18
9.44023e-19
4.83315e-13
-4.42757e-18
-1.04751e-18
4.83314e-13
4.53279e-18
9.76447e-19
-4.59056e-18
-9.06616e-19
2.20366e-13
-3.82086e-14
2.11935e-13
-3.09265e-15
2.16127e-13
1.5353e-15
2.14027e-13
-7.73732e-16
2.15073e-13
3.88944e-16
2.14558e-13
-1.94682e-16
2.14808e-13
9.6813e-17
2.14691e-13
-4.76164e-17
2.14746e-13
2.27837e-17
2.14721e-13
-1.11584e-17
2.14734e-13
5.06005e-18
2.14727e-13
-2.32125e-18
2.14733e-13
1.1973e-18
2.14728e-13
-7.01089e-19
2.14734e-13
5.36756e-19
2.14729e-13
-3.96321e-19
2.14734e-13
3.47018e-19
2.14729e-13
-3.40897e-19
2.14734e-13
2.94885e-19
2.14729e-13
-3.49435e-19
2.14734e-13
3.20158e-19
2.14728e-13
-6.00407e-19
2.14733e-13
6.52514e-19
2.14729e-13
-2.66078e-19
2.14733e-13
3.99768e-19
2.14729e-13
-3.71205e-19
2.14733e-13
4.86327e-19
-4.84627e-19
2.09744e-13
1.9504e-13
-1.02792e-13
2.0025e-13
1.43339e-14
-7.93001e-15
2.04964e-13
-7.12295e-15
3.9386e-15
2.026e-13
3.57595e-15
-1.98149e-15
2.03779e-13
-1.79036e-15
9.93937e-16
2.03197e-13
8.91194e-16
-4.96644e-16
2.03481e-13
-4.38873e-16
2.45973e-16
2.03347e-13
2.13277e-16
-1.2007e-16
2.0341e-13
-1.0136e-16
5.77201e-17
2.03381e-13
4.84101e-17
-2.75431e-17
2.03396e-13
-2.3035e-17
1.32463e-17
2.03388e-13
1.22532e-17
-6.50061e-18
2.03394e-13
-7.54422e-18
3.80829e-18
2.03389e-13
6.15414e-18
-2.63472e-18
2.03395e-13
-5.55595e-18
2.25762e-18
2.0339e-13
5.51395e-18
-2.07002e-18
2.03395e-13
-5.46266e-18
2.02333e-18
2.0339e-13
5.48194e-18
-2.00666e-18
2.03395e-13
-5.47413e-18
1.95015e-18
2.0339e-13
5.4403e-18
-1.99169e-18
2.03395e-13
-5.40627e-18
1.94262e-18
2.03389e-13
5.5987e-18
-2.07294e-18
2.03394e-13
-5.39793e-18
2.05687e-18
2.0339e-13
4.47194e-18
-1.64244e-18
2.03394e-13
-4.31675e-18
1.75002e-18
2.0339e-13
3.97583e-18
-1.65492e-18
2.03394e-13
-3.96628e-18
1.77316e-18
3.95707e-18
-1.7371e-18
4.48658e-13
1.94421e-13
-1.76688e-13
4.55275e-13
1.61945e-14
-1.42046e-14
4.51966e-13
-8.03138e-15
7.04115e-15
4.53627e-13
4.03715e-15
-3.5384e-15
4.52793e-13
-2.0294e-15
1.77424e-15
4.53212e-13
1.01717e-15
-8.86029e-16
4.53004e-13
-5.06658e-16
4.38994e-16
4.53108e-13
2.5294e-16
-2.1434e-16
4.5306e-13
-1.22664e-16
1.0367e-16
4.53084e-13
5.99826e-17
-4.94669e-17
4.53074e-13
-2.76881e-17
2.42296e-17
4.53081e-13
1.43306e-17
-1.18022e-17
4.53078e-13
-6.82618e-18
7.121e-18
4.53081e-13
4.70839e-18
-4.78332e-18
4.5308e-13
-3.02912e-18
4.26651e-18
4.53083e-13
3.00623e-18
-3.7388e-18
4.53081e-13
-2.53368e-18
3.78798e-18
4.53083e-13
2.46537e-18
-3.72292e-18
4.53081e-13
-2.50941e-18
3.65706e-18
4.53083e-13
2.38761e-18
-3.70671e-18
4.5308e-13
-2.56966e-18
3.67845e-18
4.53082e-13
2.9088e-18
-3.85382e-18
4.5308e-13
-3.04687e-18
3.68175e-18
4.53082e-13
2.12955e-18
-3.22335e-18
4.5308e-13
-2.24289e-18
3.14005e-18
4.53081e-13
1.88839e-18
-3.12791e-18
4.5308e-13
-2.05029e-18
3.15975e-18
2.03547e-18
-3.10214e-18
5.74023e-13
7.75092e-14
-1.94425e-13
5.93145e-13
6.63507e-15
-1.61929e-14
5.83645e-13
-3.28686e-15
8.02548e-15
5.8842e-13
1.65341e-15
-4.032e-15
5.86016e-13
-8.33361e-16
2.02208e-15
5.87227e-13
4.18659e-16
-1.00984e-15
5.86621e-13
-2.09525e-16
5.00264e-16
5.86926e-13
1.07421e-16
-2.44137e-16
5.86779e-13
-5.25569e-17
1.17882e-16