/*--------------------------------*- C++ -*----------------------------------*\
  =========                 |
  \\      /  F ield         | OpenFOAM: The Open Source CFD Toolbox
   \\    /   O peration     | Website:  https://openfoam.org
    \\  /    A nd           | Version:  13
     \\/     M anipulation  |
\*---------------------------------------------------------------------------*/
FoamFile
{
    format      ascii;
    class       volVectorField;
    location    "33";
    object      U;
}
// * * * * * * * * * * * * * * * * * * * * * * * * * * * * * * * * * * * * * //

dimensions      [0 1 -1 0 0 0 0];

internalField   nonuniform List<vector> 
1372
(
(0.000317124 6.99385e-06 6.99384e-06)
(0.000473201 5.59191e-07 5.59209e-07)
(0.000393873 -2.80165e-07 -2.80182e-07)
(0.000433719 1.4095e-07 1.40968e-07)
(0.00041364 -7.07897e-08 -7.08056e-08)
(0.00042375 3.54259e-08 3.54372e-08)
(0.00041867 -1.76111e-08 -1.76184e-08)
(0.000421208 8.67479e-09 8.68293e-09)
(0.000419957 -4.20714e-09 -4.20847e-09)
(0.000420563 2.0233e-09 2.02421e-09)
(0.000420278 -9.61451e-10 -9.60069e-10)
(0.000420409 4.79754e-10 4.78472e-10)
(0.000420354 -2.54272e-10 -2.52811e-10)
(0.000420376 1.67467e-10 1.65912e-10)
(0.000420369 -1.2888e-10 -1.27193e-10)
(0.000420371 1.18529e-10 1.17193e-10)
(0.000420371 -1.12981e-10 -1.11063e-10)
(0.000420371 1.10817e-10 1.09406e-10)
(0.000420371 -1.09974e-10 -1.08072e-10)
(0.000420372 1.07474e-10 1.06021e-10)
(0.00042037 -1.07089e-10 -1.05469e-10)
(0.000420372 1.02777e-10 1.00588e-10)
(0.000420369 -9.76225e-11 -9.53477e-11)
(0.000420373 8.87035e-11 8.74743e-11)
(0.00042037 -8.18633e-11 -8.10686e-11)
(0.000420373 7.76707e-11 7.67946e-11)
(0.000420371 -7.47688e-11 -7.47385e-11)
(0.000420373 7.28845e-11 7.21188e-11)
(0.000611493 1.23254e-05 1.06242e-05)
(0.000912983 8.44705e-07 9.96695e-07)
(0.000760309 -4.20205e-07 -4.98236e-07)
(0.000837135 2.11882e-07 2.50106e-07)
(0.000798426 -1.06482e-07 -1.25115e-07)
(0.000817909 5.33055e-08 6.22003e-08)
(0.000808131 -2.64731e-08 -3.07124e-08)
(0.000813008 1.30734e-08 1.49725e-08)
(0.00081061 -6.29602e-09 -7.26045e-09)
(0.000811769 3.0323e-09 3.48377e-09)
(0.000811226 -1.39949e-09 -1.73233e-09)
(0.000811475 7.01939e-10 9.18565e-10)
(0.00081137 -3.54125e-10 -5.59159e-10)
(0.000811413 2.43178e-10 4.08854e-10)
(0.000811399 -1.79347e-10 -3.64451e-10)
(0.000811404 1.69823e-10 3.42481e-10)
(0.000811404 -1.57313e-10 -3.46789e-10)
(0.000811404 1.53902e-10 3.44498e-10)
(0.000811404 -1.52625e-10 -3.45895e-10)
(0.000811405 1.48661e-10 3.36588e-10)
(0.000811402 -1.49421e-10 -3.35092e-10)
(0.000811405 1.56537e-10 3.04906e-10)
(0.000811399 -1.57911e-10 -2.64672e-10)
(0.000811408 1.15078e-10 2.8761e-10)
(0.000811401 -1.21202e-10 -2.20116e-10)
(0.000811406 1.0582e-10 2.22172e-10)
(0.000811402 -1.11984e-10 -1.79902e-10)
(0.000811405 1.09107e-10 1.66117e-10)
(0.000750664 7.83267e-06 1.03577e-05)
(0.00112116 6.06611e-07 1.08818e-06)
(0.000933893 -3.01946e-07 -5.44214e-07)
(0.0010282 1.52547e-07 2.73283e-07)
(0.000980688 -7.69296e-08 -1.36726e-07)
(0.0010046 3.86849e-08 6.79943e-08)
(0.000992608 -1.93392e-08 -3.35625e-08)
(0.00099858 9.76379e-09 1.63695e-08)
(0.000995652 -4.72508e-09 -7.91268e-09)
(0.000997063 2.33292e-09 3.80308e-09)
(0.000996405 -1.01842e-09 -1.86726e-09)
(0.000996706 5.18742e-10 9.94145e-10)
(0.000996581 -2.04205e-10 -5.94074e-10)
(0.000996631 1.3249e-10 4.42219e-10)
(0.000996615 -5.78812e-11 -3.85926e-10)
(0.000996621 5.9682e-11 3.65991e-10)
(0.000996622 -3.6435e-11 -3.65799e-10)
(0.000996621 3.45963e-11 3.65196e-10)
(0.000996621 -3.43966e-11 -3.65537e-10)
(0.000996623 3.09038e-11 3.56345e-10)
(0.000996619 -3.66459e-11 -3.52344e-10)
(0.000996623 6.2638e-11 3.22773e-10)
(0.000996614 -7.71896e-11 -2.86131e-10)
(0.000996626 1.90849e-11 2.9478e-10)
(0.000996616 -4.31974e-11 -2.37421e-10)
(0.000996623 2.34978e-11 2.28856e-10)
(0.000996618 -3.63117e-11 -1.92041e-10)
(0.000996622 4.0244e-11 1.85714e-10)
(0.000792373 -1.36029e-10 1.01204e-05)
(0.0011836 7.92803e-12 1.09723e-06)
(0.000985968 -1.26793e-10 -5.48977e-07)
(0.00108552 2.04684e-10 2.75835e-07)
(0.00103536 -2.71645e-10 -1.38078e-07)
(0.0010606 1.72656e-10 6.87161e-08)
(0.00104795 -1.66234e-10 -3.39237e-08)
(0.00105425 3.13797e-10 1.65552e-08)
(0.00105116 -1.9045e-10 -7.98129e-09)
(0.00105265 1.64573e-10 3.83043e-09)
(0.00105195 -2.68858e-11 -1.86168e-09)
(0.00105227 3.80168e-11 9.82808e-10)
(0.00105214 2.7713e-11 -5.79057e-10)
(0.00105219 -1.62422e-11 4.30936e-10)
(0.00105218 4.07236e-11 -3.70962e-10)
(0.00105218 -3.77894e-11 3.5308e-10)
(0.00105218 4.84002e-11 -3.49104e-10)
(0.00105218 -4.79465e-11 3.49638e-10)
(0.00105218 4.53311e-11 -3.48349e-10)
(0.00105218 -4.79602e-11 3.40633e-10)
(0.00105218 4.10001e-11 -3.36345e-10)
(0.00105218 -2.33394e-12 3.19527e-10)
(0.00105217 -5.7938e-13 -2.87682e-10)
(0.00105219 -3.45948e-11 2.77356e-10)
(0.00105218 3.37263e-11 -2.31755e-10)
(0.00105218 -3.69363e-11 2.18153e-10)
(0.00105218 4.1587e-11 -1.91699e-10)
(0.00105218 -3.87935e-11 1.89451e-10)
(0.000750664 -7.83286e-06 1.03575e-05)
(0.00112116 -6.06569e-07 1.08813e-06)
(0.000933893 3.01671e-07 -5.44187e-07)
(0.0010282 -1.52177e-07 2.73286e-07)
(0.000980688 7.64412e-08 -1.36727e-07)
(0.0010046 -3.83348e-08 6.79935e-08)
(0.000992608 1.90126e-08 -3.35458e-08)
(0.00099858 -9.20092e-09 1.63602e-08)
(0.000995652 4.39263e-09 -7.89588e-09)
(0.000997063 -2.04741e-09 3.78372e-09)
(0.000996405 9.79214e-10 -1.85744e-09)
(0.000996706 -4.53998e-10 9.81309e-10)
(0.000996581 2.59712e-10 -5.90481e-10)
(0.000996631 -1.64717e-10 4.42049e-10)
(0.000996615 1.37786e-10 -3.88937e-10)
(0.000996621 -1.29217e-10 3.62676e-10)
(0.000996622 1.26955e-10 -3.61707e-10)
(0.000996621 -1.23979e-10 3.62087e-10)
(0.000996621 1.19208e-10 -3.61149e-10)
(0.000996623 -1.20562e-10 3.52865e-10)
(0.000996619 1.15173e-10 -3.51229e-10)
(0.000996623 -8.78843e-11 3.42739e-10)
(0.000996614 9.23025e-11 -3.0299e-10)
(0.000996626 -8.84456e-11 2.95862e-10)
(0.000996616 1.03159e-10 -2.35712e-10)
(0.000996623 -9.35374e-11 2.28907e-10)
(0.000996618 1.1122e-10 -1.96431e-10)
(0.000996622 -1.06979e-10 1.86915e-10)
(0.000611492 -1.23255e-05 1.0624e-05)
(0.000912983 -8.44637e-07 9.96666e-07)
(0.000760309 4.19969e-07 -4.98272e-07)
(0.000837135 -2.11666e-07 2.50147e-07)
(0.000798426 1.06185e-07 -1.25151e-07)
(0.000817909 -5.30209e-08 6.22616e-08)
(0.000808131 2.6213e-08 -3.07329e-08)
(0.000813008 -1.27203e-08 1.49926e-08)
(0.00081061 6.09688e-09 -7.24104e-09)
(0.000811769 -2.86659e-09 3.46484e-09)
(0.000811226 1.37939e-09 -1.7033e-09)
(0.000811475 -6.57607e-10 8.94374e-10)
(0.00081137 3.89148e-10 -5.37037e-10)
(0.000811413 -2.61944e-10 3.96982e-10)
(0.000811399 2.33535e-10 -3.49077e-10)
(0.000811404 -2.07578e-10 3.24779e-10)
(0.000811404 2.1132e-10 -3.24374e-10)
(0.000811404 -2.06524e-10 3.23895e-10)
(0.000811404 2.02514e-10 -3.23535e-10)
(0.000811405 -2.02203e-10 3.15684e-10)
(0.000811402 1.97146e-10 -3.1509e-10)
(0.000811405 -2.00199e-10 2.98054e-10)
(0.000811399 1.89851e-10 -2.62511e-10)
(0.000811408 -1.60001e-10 2.67258e-10)
(0.000811401 1.54303e-10 -2.11975e-10)
(0.000811406 -1.49563e-10 2.07886e-10)
(0.000811402 1.5679e-10 -1.78102e-10)
(0.000811405 -1.46854e-10 1.67738e-10)
(0.000317124 -6.99388e-06 6.99391e-06)
(0.000473201 -5.59153e-07 5.59223e-07)
(0.000393873 2.80067e-07 -2.80219e-07)
(0.000433719 -1.40891e-07 1.40975e-07)
(0.00041364 7.06996e-08 -7.08194e-08)
(0.00042375 -3.53097e-08 3.54802e-08)
(0.00041867 1.75045e-08 -1.76486e-08)
(0.000421208 -8.56084e-09 8.69834e-09)
(0.000419957 4.14546e-09 -4.20735e-09)
(0.000420563 -1.97389e-09 2.02104e-09)
(0.000420278 9.53883e-10 -9.55492e-10)
(0.000420409 -4.61782e-10 4.78413e-10)
(0.000420354 2.62904e-10 -2.49503e-10)
(0.000420376 -1.70915e-10 1.65114e-10)
(0.000420369 1.45355e-10 -1.22801e-10)
(0.000420371 -1.25981e-10 1.17143e-10)
(0.000420371 1.26725e-10 -1.08407e-10)
(0.000420371 -1.23785e-10 1.0757e-10)
(0.000420371 1.22182e-10 -1.0575e-10)
(0.000420372 -1.21084e-10 1.03836e-10)
(0.00042037 1.18955e-10 -1.03118e-10)
(0.000420372 -1.23678e-10 9.16005e-11)
(0.000420369 1.1339e-10 -8.9421e-11)
(0.000420373 -1.00655e-10 8.38258e-11)
(0.00042037 8.95301e-11 -8.18505e-11)
(0.000420373 -8.96154e-11 7.45314e-11)
(0.000420371 8.71934e-11 -7.50079e-11)
(0.000420373 -8.41093e-11 7.25493e-11)
(0.000611493 1.06241e-05 1.23254e-05)
(0.000912983 9.96621e-07 8.44807e-07)
(0.000760309 -4.98159e-07 -4.20303e-07)
(0.000837135 2.5004e-07 2.11933e-07)
(0.000798426 -1.25055e-07 -1.06523e-07)
(0.000817909 6.21418e-08 5.33732e-08)
(0.000808131 -3.06693e-08 -2.65256e-08)
(0.000813008 1.49425e-08 1.30883e-08)
(0.00081061 -7.2515e-09 -6.29128e-09)
(0.000811769 3.48045e-09 3.02411e-09)
(0.000811226 -1.73531e-09 -1.39379e-09)
(0.000811475 9.22405e-10 6.98052e-10)
(0.00081137 -5.64209e-10 -3.52128e-10)
(0.000811413 4.14812e-10 2.3944e-10)
(0.000811399 -3.71482e-10 -1.74381e-10)
(0.000811404 3.47492e-10 1.70378e-10)
(0.000811404 -3.53615e-10 -1.54919e-10)
(0.000811404 3.50288e-10 1.5351e-10)
(0.000811404 -3.52802e-10 -1.50297e-10)
(0.000811405 3.42474e-10 1.47892e-10)
(0.000811402 -3.41361e-10 -1.47082e-10)
(0.000811405 3.15309e-10 1.39541e-10)
(0.000811399 -2.73998e-10 -1.4282e-10)
(0.000811408 2.92753e-10 1.12533e-10)
(0.000811401 -2.2292e-10 -1.22111e-10)
(0.000811406 2.25409e-10 1.04802e-10)
(0.000811402 -1.80581e-10 -1.14462e-10)
(0.000811405 1.68497e-10 1.0937e-10)
(0.00131065 2.04264e-05 2.04265e-05)
(0.00195788 1.50568e-06 1.50577e-06)
(0.00163113 -7.48913e-07 -7.48994e-07)
(0.00179573 3.77853e-07 3.77824e-07)
(0.0017128 -1.9009e-07 -1.90055e-07)
(0.00175453 9.52722e-08 9.53401e-08)
(0.0017336 -4.73424e-08 -4.74058e-08)
(0.00174403 2.34071e-08 2.33785e-08)
(0.00173891 -1.12294e-08 -1.11928e-08)
(0.00174139 5.38936e-09 5.35398e-09)
(0.00174022 -2.43441e-09 -2.42465e-09)
(0.00174076 1.20023e-09 1.19811e-09)
(0.00174053 -5.75464e-10 -5.82009e-10)
(0.00174063 3.93138e-10 3.95535e-10)
(0.00174059 -2.72753e-10 -2.74417e-10)
(0.00174061 2.63477e-10 2.77878e-10)
(0.00174061 -2.33866e-10 -2.44368e-10)
(0.00174061 2.29758e-10 2.4349e-10)
(0.00174061 -2.24595e-10 -2.35384e-10)
(0.00174061 2.2075e-10 2.33527e-10)
(0.0017406 -2.21154e-10 -2.29921e-10)
(0.00174061 2.57043e-10 2.21876e-10)
(0.0017406 -2.71396e-10 -2.39647e-10)
(0.00174061 1.60705e-10 1.66499e-10)
(0.0017406 -1.96402e-10 -2.06876e-10)
(0.00174061 1.63014e-10 1.69196e-10)
(0.0017406 -1.94376e-10 -2.0418e-10)
(0.00174061 1.96331e-10 2.02723e-10)
(0.0016709 1.38062e-05 2.23255e-05)
(0.00249686 1.10644e-06 1.71611e-06)
(0.00208054 -5.49794e-07 -8.53528e-07)
(0.00229036 2.77507e-07 4.30484e-07)
(0.00218466 -1.39849e-07 -2.16549e-07)
(0.00223782 7.02356e-08 1.08656e-07)
(0.00221118 -3.5128e-08 -5.40082e-08)
(0.00222444 1.77495e-08 2.66456e-08)
(0.00221794 -8.65994e-09 -1.27188e-08)
(0.00222108 4.29348e-09 6.08157e-09)
(0.00221961 -1.92284e-09 -2.73689e-09)
(0.00222029 9.96912e-10 1.36738e-09)
(0.00222 -4.15009e-10 -6.58116e-10)
(0.00222012 2.70422e-10 4.5774e-10)
(0.00222008 -1.34644e-10 -3.14516e-10)
(0.0022201 1.30205e-10 3.31658e-10)
(0.0022201 -9.16663e-11 -2.89027e-10)
(0.0022201 8.78773e-11 2.89083e-10)
(0.0022201 -8.89272e-11 -2.79725e-10)
(0.0022201 8.07651e-11 2.76421e-10)
(0.00222009 -9.18009e-11 -2.73315e-10)
(0.0022201 1.38392e-10 2.49201e-10)
(0.00222008 -1.51156e-10 -2.74552e-10)
(0.00222011 6.63853e-11 1.94941e-10)
(0.00222008 -8.26608e-11 -2.46248e-10)
(0.0022201 5.75416e-11 1.9764e-10)
(0.00222009 -6.03534e-11 -2.40751e-10)
(0.0022201 6.46898e-11 2.32053e-10)
(0.00178212 -2.52098e-10 2.26185e-05)
(0.00266335 2.78804e-11 1.7632e-06)
(0.00221939 -2.67266e-10 -8.77047e-07)
(0.00244317 3.80064e-10 4.42401e-07)
(0.00233044 -5.1235e-10 -2.22608e-07)
(0.00238714 3.42353e-10 1.11766e-07)
(0.00235874 -3.32268e-10 -5.5581e-08)
(0.00237287 6.06829e-10 2.74333e-08)
(0.00236595 -3.73552e-10 -1.3086e-08)
(0.00236928 3.18708e-10 6.25037e-09)
(0.00236773 -5.41094e-11 -2.80685e-09)
(0.00236844 8.12683e-11 1.39908e-09)
(0.00236815 5.36853e-11 -6.65499e-10)
(0.00236827 -2.86947e-11 4.57911e-10)
(0.00236823 8.23907e-11 -3.07519e-10)
(0.00236824 -7.18916e-11 3.32219e-10)
(0.00236825 9.46367e-11 -2.86287e-10)
(0.00236824 -9.35662e-11 2.857e-10)
(0.00236824 8.86389e-11 -2.76064e-10)
(0.00236825 -9.4131e-11 2.72344e-10)
(0.00236824 8.25169e-11 -2.70353e-10)
(0.00236825 -2.05298e-11 2.28118e-10)
(0.00236823 1.12553e-11 -2.59377e-10)
(0.00236825 -7.13897e-11 1.90555e-10)
(0.00236823 6.60217e-11 -2.4952e-10)
(0.00236825 -7.46633e-11 1.98155e-10)
(0.00236823 8.17861e-11 -2.46089e-10)
(0.00236824 -7.4872e-11 2.35413e-10)
(0.0016709 -1.38067e-05 2.23256e-05)
(0.00249686 -1.10635e-06 1.71611e-06)
(0.00208053 5.49267e-07 -8.53482e-07)
(0.00229036 -2.76849e-07 4.30412e-07)
(0.00218466 1.38941e-07 -2.16461e-07)
(0.00223782 -6.95607e-08 1.0859e-07)
(0.00221118 3.44723e-08 -5.39516e-08)
(0.00222444 -1.66551e-08 2.65536e-08)
(0.00221794 7.9886e-09 -1.26721e-08)
(0.00222108 -3.72898e-09 6.03444e-09)
(0.00221961 1.82299e-09 -2.73573e-09)
(0.00222029 -8.4151e-10 1.36369e-09)
(0.00222 5.06899e-10 -6.70257e-10)
(0.00222012 -3.16688e-10 4.62973e-10)
(0.00222008 2.82033e-10 -3.2645e-10)
(0.0022201 -2.49713e-10 3.4726e-10)
(0.0022201 2.54235e-10 -3.09417e-10)
(0.0022201 -2.48255e-10 3.07869e-10)
(0.0022201 2.39779e-10 -2.996e-10)
(0.0022201 -2.42986e-10 2.94932e-10)
(0.00222009 2.32919e-10 -2.9003e-10)
(0.0022201 -1.91245e-10 2.38865e-10)
(0.00222008 1.84973e-10 -2.62264e-10)
(0.00222011 -1.89382e-10 2.09944e-10)
(0.00222008 1.95988e-10 -2.58585e-10)
(0.0022201 -1.88135e-10 2.12318e-10)
(0.00222009 2.05547e-10 -2.51544e-10)
(0.0022201 -1.95052e-10 2.44752e-10)
(0.00131065 -2.04268e-05 2.04265e-05)
(0.00195788 -1.5056e-06 1.50576e-06)
(0.00163113 7.4851e-07 -7.48927e-07)
(0.00179573 -3.77431e-07 3.77718e-07)
(0.0017128 1.89516e-07 -1.89939e-07)
(0.00175453 -9.47639e-08 9.52643e-08)
(0.0017336 4.68665e-08 -4.73448e-08)
(0.00174403 -2.27231e-08 2.32693e-08)
(0.00173891 1.08287e-08 -1.11393e-08)
(0.00174139 -5.06519e-09 5.29583e-09)
(0.00174022 2.39324e-09 -2.42673e-09)
(0.00174076 -1.11521e-09 1.19885e-09)
(0.00174053 6.46107e-10 -6.0088e-10)
(0.00174063 -4.27577e-10 4.06259e-10)
(0.0017406 3.77053e-10 -2.92633e-10)
(0.00174061 -3.44751e-10 3.02279e-10)
(0.00174061 3.47803e-10 -2.73934e-10)
(0.00174061 -3.40125e-10 2.71617e-10)
(0.00174061 3.29943e-10 -2.64903e-10)
(0.00174061 -3.33487e-10 2.61015e-10)
(0.0017406 3.199e-10 -2.5583e-10)
(0.00174061 -3.18702e-10 2.13645e-10)
(0.0017406 3.18325e-10 -2.27409e-10)
(0.00174061 -2.47818e-10 1.90748e-10)
(0.0017406 2.72531e-10 -2.24203e-10)
(0.00174061 -2.53797e-10 1.90359e-10)
(0.0017406 2.86588e-10 -2.18656e-10)
(0.00174061 -2.67632e-10 2.19168e-10)
(0.000611492 -1.0624e-05 1.23254e-05)
(0.000912983 -9.96528e-07 8.44792e-07)
(0.000760309 4.97982e-07 -4.20291e-07)
(0.000837135 -2.49966e-07 2.11879e-07)
(0.000798426 1.24907e-07 -1.06469e-07)
(0.000817909 -6.19367e-08 5.33691e-08)
(0.000808131 3.04564e-08 -2.65154e-08)
(0.000813008 -1.47255e-08 1.30429e-08)
(0.00081061 7.11487e-09 -6.25765e-09)
(0.000811769 -3.37144e-09 2.98947e-09)
(0.000811226 1.69879e-09 -1.38706e-09)
(0.000811475 -8.64708e-10 6.95428e-10)
(0.00081137 5.64365e-10 -3.56194e-10)
(0.000811413 -4.11587e-10 2.43359e-10)
(0.000811399 3.94582e-10 -1.77947e-10)
(0.000811404 -3.45715e-10 1.80195e-10)
(0.000811404 3.62449e-10 -1.63928e-10)
(0.000811404 -3.58441e-10 1.63066e-10)
(0.000811404 3.58165e-10 -1.59428e-10)
(0.000811405 -3.52077e-10 1.56717e-10)
(0.000811402 3.48662e-10 -1.54955e-10)
(0.000811405 -3.60428e-10 1.29133e-10)
(0.000811399 3.10528e-10 -1.34127e-10)
(0.000811408 -3.01093e-10 1.18162e-10)
(0.000811401 2.29669e-10 -1.30169e-10)
(0.000811406 -2.38018e-10 1.10896e-10)
(0.000811402 2.03401e-10 -1.21776e-10)
(0.000811405 -1.90334e-10 1.17997e-10)
(0.000750664 1.03574e-05 7.83284e-06)
(0.00112116 1.08817e-06 6.06671e-07)
(0.000933893 -5.44182e-07 -3.02015e-07)
(0.0010282 2.7324e-07 1.52526e-07)
(0.000980688 -1.36674e-07 -7.69092e-08)
(0.0010046 6.79374e-08 3.87616e-08)
(0.000992608 -3.35182e-08 -1.94085e-08)
(0.00099858 1.63323e-08 9.7461e-09)
(0.000995652 -7.89972e-09 -4.70071e-09)
(0.000997063 3.7982e-09 2.30175e-09)
(0.000996405 -1.8701e-09 -1.01107e-09)
(0.000996706 9.97743e-10 5.15214e-10)
(0.000996581 -6.00753e-10 -2.08017e-10)
(0.000996631 4.48134e-10 1.33004e-10)
(0.000996615 -3.92665e-10 -5.77608e-11)
(0.000996621 3.73281e-10 6.91437e-11)
(0.000996622 -3.73886e-10 -4.31262e-11)
(0.000996621 3.72546e-10 4.32864e-11)
(0.000996621 -3.73673e-10 -4.12105e-11)
(0.000996623 3.63909e-10 3.87846e-11)
(0.000996619 -3.59665e-10 -4.20233e-11)
(0.000996623 3.40413e-10 2.9835e-11)
(0.000996614 -3.03691e-10 -4.76543e-11)
(0.000996626 2.99722e-10 2.2682e-11)
(0.000996616 -2.41598e-10 -5.04612e-11)
(0.000996623 2.3192e-10 2.81426e-11)
(0.000996618 -1.93037e-10 -4.40359e-11)
(0.000996622 1.90002e-10 4.49693e-11)
(0.0016709 2.23256e-05 1.38062e-05)
(0.00249686 1.71606e-06 1.10657e-06)
(0.00208054 -8.53461e-07 -5.49933e-07)
(0.00229036 4.30547e-07 2.77455e-07)
(0.00218466 -2.16603e-07 -1.39792e-07)
(0.00223782 1.0856e-07 7.03845e-08)
(0.00221118 -5.39141e-08 -3.52623e-08)
(0.00222444 2.66773e-08 1.7698e-08)
(0.00221794 -1.27593e-08 -8.6001e-09)
(0.00222108 6.12495e-09 4.222e-09)
(0.00221961 -2.74734e-09 -1.90398e-09)
(0.00222029 1.36969e-09 9.88089e-10)
(0.00222 -6.49709e-10 -4.22895e-10)
(0.00222012 4.55697e-10 2.72048e-10)
(0.00222008 -3.13901e-10 -1.3588e-10)
(0.0022201 3.13986e-10 1.51515e-10)
(0.0022201 -2.76694e-10 -1.08062e-10)
(0.0022201 2.73009e-10 1.08188e-10)
(0.0022201 -2.67073e-10 -1.0564e-10)
(0.0022201 2.61427e-10 9.94339e-11)
(0.00222009 -2.62994e-10 -1.04368e-10)
(0.0022201 2.93113e-10 6.96068e-11)
(0.00222008 -3.13312e-10 -8.87399e-11)
(0.00222011 1.8817e-10 7.46654e-11)
(0.00222008 -2.33579e-10 -9.92338e-11)
(0.0022201 1.90268e-10 6.85751e-11)
(0.00222009 -2.2903e-10 -7.73639e-11)
(0.0022201 2.24747e-10 7.67865e-11)
(0.00216323 1.54938e-05 1.54941e-05)
(0.00323355 1.28114e-06 1.28116e-06)
(0.00269483 -6.3668e-07 -6.3676e-07)
(0.00296642 3.21476e-07 3.21342e-07)
(0.00282961 -1.62117e-07 -1.62011e-07)
(0.00289841 8.15055e-08 8.16864e-08)
(0.00286396 -4.07694e-08 -4.09447e-08)
(0.00288109 2.06288e-08 2.05707e-08)
(0.00287272 -1.00238e-08 -9.95575e-09)
(0.00287674 4.96567e-09 4.87951e-09)
(0.00287488 -2.18606e-09 -2.16713e-09)
(0.00287573 1.1298e-09 1.12195e-09)
(0.00287537 -4.45338e-10 -4.57468e-10)
(0.00287552 2.90623e-10 2.93212e-10)
(0.00287547 -1.23088e-10 -1.24671e-10)
(0.00287549 1.2872e-10 1.56438e-10)
(0.00287549 -7.67948e-11 -9.78809e-11)
(0.00287549 7.35371e-11 9.93066e-11)
(0.00287549 -7.34498e-11 -9.49158e-11)
(0.0028755 6.47157e-11 8.84443e-11)
(0.00287548 -7.69498e-11 -9.44289e-11)
(0.0028755 1.313e-10 4.22338e-11)
(0.00287547 -1.58583e-10 -7.78447e-11)
(0.00287551 4.30443e-11 5.57855e-11)
(0.00287547 -8.67381e-11 -1.07675e-10)
(0.0028755 4.56387e-11 6.02482e-11)
(0.00287547 -6.43482e-11 -8.55851e-11)
(0.00287549 7.64555e-11 8.94347e-11)
(0.00231763 -3.29376e-10 1.58042e-05)
(0.00346471 3.23944e-11 1.32224e-06)
(0.00288763 -3.22501e-10 -6.5727e-07)
(0.00317859 4.51387e-10 3.31736e-07)
(0.00303202 -6.06643e-10 -1.67283e-07)
(0.00310572 4.15549e-10 8.44015e-08)
(0.00306883 -3.88566e-10 -4.23064e-08)
(0.00308715 7.15591e-10 2.12217e-08)
(0.00307821 -4.34566e-10 -1.02542e-08)
(0.00308251 3.61511e-10 5.00165e-09)
(0.00308051 -5.72792e-11 -2.22075e-09)
(0.00308142 9.17827e-11 1.14123e-09)
(0.00308105 6.60048e-11 -4.63107e-10)
(0.0030812 -3.45676e-11 2.93988e-10)
(0.00308115 9.81602e-11 -1.20436e-10)
(0.00308117 -8.41905e-11 1.57587e-10)
(0.00308118 1.10774e-10 -9.70471e-11)
(0.00308117 -1.10633e-10 9.82272e-11)
(0.00308117 1.0328e-10 -9.34174e-11)
(0.00308118 -1.11822e-10 8.66515e-11)
(0.00308116 9.50931e-11 -9.12377e-11)
(0.00308118 -2.49547e-11 2.61748e-11)
(0.00308115 1.44686e-11 -6.7099e-11)
(0.00308119 -8.21008e-11 5.0096e-11)
(0.00308115 7.66419e-11 -1.12514e-10)
(0.00308118 -8.69504e-11 6.12846e-11)
(0.00308115 9.52542e-11 -9.35074e-11)
(0.00308117 -8.539e-11 9.97381e-11)
(0.00216323 -1.54944e-05 1.54942e-05)
(0.00323355 -1.28102e-06 1.28118e-06)
(0.00269483 6.36007e-07 -6.3671e-07)
(0.00296642 -3.20663e-07 3.21241e-07)
(0.00282961 1.61019e-07 -1.61863e-07)
(0.00289841 -8.0668e-08 8.15902e-08)
(0.00286396 3.99952e-08 -4.08367e-08)
(0.00288109 -1.93264e-08 2.03941e-08)
(0.00287272 9.24699e-09 -9.85039e-09)
(0.00287674 -4.3244e-09 4.77132e-09)
(0.00287488 2.09136e-09 -2.14732e-09)
(0.00287573 -9.61629e-10 1.09781e-09)
(0.00287537 5.68789e-10 -4.71566e-10)
(0.00287552 -3.52941e-10 3.03469e-10)
(0.00287548 3.08157e-10 -1.4836e-10)
(0.00287549 -2.77102e-10 1.79126e-10)
(0.00287549 2.78149e-10 -1.27611e-10)
(0.00287549 -2.72783e-10 1.26744e-10)
(0.00287549 2.60211e-10 -1.23895e-10)
(0.0028755 -2.66728e-10 1.15596e-10)
(0.00287548 2.51105e-10 -1.22334e-10)
(0.0028755 -2.06359e-10 4.77138e-11)
(0.00287547 2.07794e-10 -7.96677e-11)
(0.00287551 -1.97478e-10 8.04442e-11)
(0.00287547 2.21749e-10 -1.2661e-10)
(0.0028755 -2.0587e-10 8.27525e-11)
(0.00287547 2.3577e-10 -1.09657e-10)
(0.00287549 -2.25711e-10 1.14319e-10)
(0.0016709 -2.2326e-05 1.38062e-05)
(0.00249686 -1.71595e-06 1.10659e-06)
(0.00208053 8.52937e-07 -5.49856e-07)
(0.00229036 -4.3002e-07 2.77311e-07)
(0.00218466 2.15889e-07 -1.39585e-07)
(0.00223782 -1.0792e-07 7.02428e-08)
(0.00221118 5.33415e-08 -3.51003e-08)
(0.00222444 -2.5834e-08 1.74486e-08)
(0.00221794 1.22835e-08 -8.4464e-09)
(0.00222108 -5.74025e-09 4.06945e-09)
(0.00221961 2.70796e-09 -1.87314e-09)
(0.00222029 -1.26892e-09 9.53689e-10)
(0.00222 7.41914e-10 -4.38681e-10)
(0.00222012 -5.03845e-10 2.85146e-10)
(0.00222008 4.50169e-10 -1.65496e-10)
(0.0022201 -4.12645e-10 1.80826e-10)
(0.0022201 4.16464e-10 -1.45851e-10)
(0.0022201 -4.09007e-10 1.44009e-10)
(0.0022201 3.96419e-10 -1.41696e-10)
(0.0022201 -4.00813e-10 1.34265e-10)
(0.00222009 3.84913e-10 -1.3585e-10)
(0.0022201 -3.91479e-10 7.39202e-11)
(0.00222008 3.88478e-10 -9.04924e-11)
(0.00222011 -2.98951e-10 1.00674e-10)
(0.00222008 3.22165e-10 -1.26906e-10)
(0.0022201 -3.02144e-10 9.76406e-11)
(0.00222009 3.39445e-10 -1.10001e-10)
(0.0022201 -3.10487e-10 1.12308e-10)
(0.000750663 -1.03573e-05 7.83281e-06)
(0.00112116 -1.08805e-06 6.06637e-07)
(0.000933893 5.43955e-07 -3.01913e-07)
(0.0010282 -2.73128e-07 1.52387e-07)
(0.000980688 1.36483e-07 -7.67338e-08)
(0.0010046 -6.76796e-08 3.86316e-08)
(0.000992608 3.32627e-08 -1.92826e-08)
(0.00099858 -1.60697e-08 9.55945e-09)
(0.000995652 7.74353e-09 -4.59411e-09)
(0.000997063 -3.67245e-09 2.20048e-09)
(0.000996405 1.83636e-09 -9.97188e-10)
(0.000996706 -9.38607e-10 4.97714e-10)
(0.000996581 6.06959e-10 -2.26323e-10)
(0.000996631 -4.42741e-10 1.45922e-10)
(0.000996615 4.18834e-10 -8.28038e-11)
(0.000996621 -3.76051e-10 9.49316e-11)
(0.000996622 3.91468e-10 -7.46375e-11)
(0.000996621 -3.87369e-10 7.40248e-11)
(0.000996621 3.86605e-10 -7.16934e-11)
(0.000996623 -3.79904e-10 6.90129e-11)
(0.000996619 3.7301e-10 -7.053e-11)
(0.000996623 -3.69258e-10 3.79936e-11)
(0.000996614 3.2232e-10 -5.22346e-11)
(0.000996626 -3.1492e-10 4.78598e-11)
(0.000996616 2.52299e-10 -7.09296e-11)
(0.000996623 -2.51557e-10 5.13842e-11)
(0.000996618 2.19929e-10 -6.78042e-11)
(0.000996622 -2.15177e-10 6.93138e-11)
(0.000792373 1.01202e-05 -9.02871e-11)
(0.0011836 1.09727e-06 7.53899e-11)
(0.000985968 -5.48981e-07 -1.99267e-10)
(0.00108552 2.75802e-07 1.5557e-10)
(0.00103536 -1.38031e-07 -2.19445e-10)
(0.0010606 6.86662e-08 2.51766e-10)
(0.00104795 -3.38864e-08 -2.38265e-10)
(0.00105425 1.65179e-08 2.68834e-10)
(0.00105116 -7.9687e-09 -1.54408e-10)
(0.00105265 3.8282e-09 1.16878e-10)
(0.00105195 -1.86566e-09 -1.7415e-11)
(0.00105227 9.89014e-10 3.32144e-11)
(0.00105214 -5.86271e-10 2.19797e-11)
(0.00105219 4.36753e-10 -1.32097e-11)
(0.00105218 -3.76372e-10 3.73806e-11)
(0.00105218 3.61563e-10 -2.45195e-11)
(0.00105218 -3.58134e-10 3.59706e-11)
(0.00105218 3.57977e-10 -3.48797e-11)
(0.00105218 -3.57363e-10 3.29171e-11)
(0.00105218 3.49167e-10 -3.58459e-11)
(0.00105218 -3.4336e-10 3.16812e-11)
(0.00105218 3.29356e-10 -4.47143e-11)
(0.00105217 -2.99461e-10 3.74073e-11)
(0.00105219 2.80847e-10 -2.83287e-11)
(0.00105218 -2.37244e-10 2.3151e-11)
(0.00105218 2.20637e-10 -2.88501e-11)
(0.00105218 -1.91821e-10 3.12755e-11)
(0.00105218 1.9425e-10 -3.03892e-11)
(0.00178212 2.26184e-05 -1.65465e-10)
(0.00266335 1.76315e-06 1.3055e-10)
(0.00221939 -8.76975e-07 -3.85206e-10)
(0.00244317 4.42474e-07 2.86634e-10)
(0.00233044 -2.22671e-07 -4.17476e-10)
(0.00238714 1.11664e-07 4.95428e-10)
(0.00235874 -5.54803e-08 -4.72343e-10)
(0.00237287 2.74706e-08 5.27603e-10)
(0.00236595 -1.31313e-08 -3.04638e-10)
(0.00236928 6.29823e-09 2.27431e-10)
(0.00236773 -2.81856e-09 -3.42388e-11)
(0.00236844 1.40197e-09 7.02239e-11)
(0.00236815 -6.57189e-10 4.26124e-11)
(0.00236827 4.57107e-10 -2.35224e-11)
(0.00236823 -3.08216e-10 7.56776e-11)
(0.00236824 3.13543e-10 -4.59151e-11)
(0.00236825 -2.72864e-10 7.1336e-11)
(0.00236824 2.68475e-10 -6.8496e-11)
(0.00236824 -2.62419e-10 6.5142e-11)
(0.00236825 2.56267e-10 -7.0819e-11)
(0.00236824 -2.60409e-10 6.26871e-11)
(0.00236825 2.82357e-10 -9.27906e-11)
(0.00236823 -3.06891e-10 7.74361e-11)
(0.00236825 1.84878e-10 -5.64252e-11)
(0.00236823 -2.354e-10 4.6153e-11)
(0.00236825 1.90396e-10 -5.85291e-11)
(0.00236823 -2.33934e-10 6.11444e-11)
(0.00236824 2.26842e-10 -5.93273e-11)
(0.00231763 1.5804e-05 -2.23411e-10)
(0.00346471 1.32226e-06 1.2357e-10)
(0.00288763 -6.57215e-07 -4.39559e-10)
(0.00317859 3.31902e-07 3.00952e-10)
(0.00303202 -1.67411e-07 -4.6194e-10)
(0.00310572 8.42122e-08 5.89951e-10)
(0.00306883 -4.21209e-08 -5.53453e-10)
(0.00308715 2.1287e-08 6.09717e-10)
(0.00307821 -1.03283e-08 -3.44474e-10)
(0.00308251 5.09566e-09 2.47999e-10)
(0.00308051 -2.24141e-09 -3.37416e-11)
(0.00308142 1.15014e-09 8.0669e-11)
(0.00308105 -4.50509e-10 5.04796e-11)
(0.0030812 2.90994e-10 -2.5512e-11)
(0.00308115 -1.18438e-10 8.79325e-11)
(0.00308117 1.28251e-10 -4.95802e-11)
(0.00308118 -7.4647e-11 7.99614e-11)
(0.00308117 7.06211e-11 -7.63822e-11)
(0.00308117 -7.0648e-11 7.21781e-11)
(0.00308118 6.12515e-11 -7.97965e-11)
(0.00308116 -7.38159e-11 7.0738e-11)
(0.00308118 1.21771e-10 -1.1465e-10)
(0.00308115 -1.53497e-10 9.51743e-11)
(0.00308119 3.77676e-11 -6.49212e-11)
(0.00308115 -9.001e-11 4.98066e-11)
(0.00308118 4.55659e-11 -6.67063e-11)
(0.00308115 -7.0692e-11 6.91843e-11)
(0.00308117 8.60567e-11 -6.61082e-11)
(0.00248641 -2.52261e-10 -2.18468e-10)
(0.00371742 1.63813e-11 2.01672e-10)
(0.0030984 -3.01172e-10 -4.93343e-10)
(0.00341053 4.12416e-10 3.01197e-10)
(0.0032533 -5.55289e-10 -4.34965e-10)
(0.00333235 3.87636e-10 5.92725e-10)
(0.00329279 -3.50623e-10 -5.36029e-10)
(0.00331244 6.62036e-10 5.58031e-10)
(0.00330286 -4.0225e-10 -3.0693e-10)
(0.00330745 3.21334e-10 2.02629e-10)
(0.00330533 -4.77084e-11 -2.10146e-11)
(0.0033063 8.31932e-11 7.06514e-11)
(0.0033059 6.30883e-11 4.74927e-11)
(0.00330606 -3.09769e-11 -2.2047e-11)
(0.00330601 9.14157e-11 8.19669e-11)
(0.00330603 -7.65479e-11 -4.00561e-11)
(0.00330603 1.00911e-10 6.97854e-11)
(0.00330603 -1.02194e-10 -6.70761e-11)
(0.00330603 9.30506e-11 6.16551e-11)
(0.00330604 -1.03398e-10 -7.06761e-11)
(0.00330602 8.44903e-11 5.88828e-11)
(0.00330604 -2.48485e-11 -1.18077e-10)
(0.003306 1.54098e-11 9.86805e-11)
(0.00330605 -7.30496e-11 -5.53122e-11)
(0.003306 7.05796e-11 4.24423e-11)
(0.00330603 -8.00384e-11 -5.98483e-11)
(0.00330601 8.74366e-11 5.97326e-11)
(0.00330602 -7.6452e-11 -5.57866e-11)
(0.00231763 -1.58044e-05 -1.52117e-10)
(0.00346471 -1.3222e-06 2.34294e-10)
(0.00288763 6.56627e-07 -4.27635e-10)
(0.00317859 -3.31193e-07 2.08542e-10)
(0.00303202 1.66428e-07 -3.02021e-10)
(0.00310572 -8.34596e-08 4.69447e-10)
(0.00306883 4.14349e-08 -4.15148e-10)
(0.00308715 -2.009e-08 3.99495e-10)
(0.00307821 9.60654e-09 -2.25057e-10)
(0.00308251 -4.51981e-09 1.22834e-10)
(0.00308051 2.15234e-09 -1.52995e-11)
(0.00308142 -9.85666e-10 6.03419e-11)
(0.00308105 5.62774e-10 3.20309e-11)
(0.0030812 -3.41549e-10 -8.21971e-12)
(0.00308115 2.87586e-10 5.77904e-11)
(0.00308117 -2.57876e-10 -1.91095e-11)
(0.00308118 2.52857e-10 4.13116e-11)
(0.00308117 -2.48845e-10 -3.99567e-11)
(0.00308117 2.34651e-10 3.48873e-11)
(0.00308118 -2.43397e-10 -4.43535e-11)
(0.00308116 2.2907e-10 3.91989e-11)
(0.00308118 -1.92112e-10 -1.03939e-10)
(0.00308115 1.99822e-10 8.72258e-11)
(0.00308119 -1.76212e-10 -3.89517e-11)
(0.00308115 2.09366e-10 2.31515e-11)
(0.00308118 -1.897e-10 -3.8788e-11)
(0.00308115 2.28958e-10 4.12841e-11)
(0.00308117 -2.19181e-10 -3.59217e-11)
(0.00178212 -2.26188e-05 -9.75493e-11)
(0.00266335 -1.76306e-06 1.25394e-10)
(0.00221939 8.76499e-07 -2.49685e-10)
(0.00244317 -4.42003e-07 8.40876e-11)
(0.00233044 2.22014e-07 -1.25572e-10)
(0.00238714 -1.11073e-07 2.64094e-10)
(0.00235874 5.49583e-08 -2.10016e-10)
(0.00237287 -2.66744e-08 1.88064e-10)
(0.00236595 1.26804e-08 -9.74855e-11)
(0.00236928 -5.94096e-09 2.04275e-11)
(0.00236773 2.77833e-09 9.85256e-12)
(0.00236844 -1.2973e-09 2.3735e-11)
(0.00236815 7.41374e-10 1.97555e-11)
(0.00236827 -4.97e-10 -3.05667e-12)
(0.00236823 4.35277e-10 3.27214e-11)
(0.00236824 -3.99469e-10 -2.86785e-12)
(0.00236825 3.98019e-10 1.79935e-11)
(0.00236824 -3.90699e-10 -1.71773e-11)
(0.00236824 3.77317e-10 1.31061e-11)
(0.00236825 -3.82604e-10 -2.0397e-11)
(0.00236824 3.70282e-10 1.28077e-11)
(0.00236825 -3.74546e-10 -6.65795e-11)
(0.00236823 3.76449e-10 5.66336e-11)
(0.00236825 -2.8585e-10 -1.46738e-11)
(0.00236823 3.13472e-10 8.08418e-12)
(0.00236825 -2.9267e-10 -1.89698e-11)
(0.00236823 3.37132e-10 1.614e-11)
(0.00236824 -3.05034e-10 -1.18046e-11)
(0.000792373 -1.01203e-05 -9.11689e-12)
(0.0011836 -1.09718e-06 3.31361e-11)
(0.000985967 5.48783e-07 -6.86273e-11)
(0.00108552 -2.75705e-07 -2.66662e-12)
(0.00103536 1.37857e-07 -1.67079e-11)
(0.0010606 -6.84345e-08 7.90441e-11)
(0.00104795 3.36624e-08 -6.42511e-11)
(0.00105425 -1.62784e-08 5.34963e-11)
(0.00105116 7.831e-09 -3.30015e-11)
(0.00105265 -3.7175e-09 4.43409e-14)
(0.00105195 1.83786e-09 -3.51003e-13)
(0.00105227 -9.3618e-10 1.48566e-11)
(0.00105214 5.94961e-10 2.19067e-12)
(0.00105219 -4.32122e-10 5.61501e-12)
(0.00105218 4.03142e-10 6.15617e-12)
(0.00105218 -3.65521e-10 5.65973e-12)