/*--------------------------------*- C++ -*----------------------------------*\
  =========                 |
  \\      /  F ield         | OpenFOAM: The Open Source CFD Toolbox
   \\    /   O peration     | Website:  https://openfoam.org
    \\  /    A nd           | Version:  13
     \\/     M anipulation  |
\*---------------------------------------------------------------------------*/
FoamFile
{
    format      ascii;
    class       surfaceScalarField;
    location    "32";
    object      phi;
}
// * * * * * * * * * * * * * * * * * * * * * * * * * * * * * * * * * * * * * //

dimensions      [0 3 -1 0 0 0 0];

internalField   nonuniform List<scalar> 
3675
(
1.00382e-11
1.19911e-11
1.19911e-11
8.01579e-12
1.01122e-12
1.01123e-12
8.75288e-12
-3.68682e-13
-3.68702e-13
8.5118e-12
1.20663e-13
1.20671e-13
8.6039e-12
-4.61897e-14
-4.61875e-14
8.56996e-12
1.71174e-14
1.7129e-14
8.58198e-12
-6.08368e-15
-6.10264e-15
8.57793e-12
2.11893e-15
2.12447e-15
8.57938e-12
-7.35861e-16
-7.34746e-16
8.57877e-12
3.22794e-16
3.201e-16
8.57921e-12
-1.98111e-16
-1.98161e-16
8.5788e-12
1.90648e-16
1.9057e-16
8.57924e-12
-1.92861e-16
-1.94614e-16
8.57877e-12
2.12369e-16
2.11023e-16
8.57927e-12
-2.20486e-16
-2.18698e-16
8.57877e-12
2.28328e-16
2.30351e-16
8.57929e-12
-2.32742e-16
-2.33297e-16
8.57876e-12
2.39319e-16
2.41231e-16
8.5793e-12
-2.44603e-16
-2.45256e-16
8.57875e-12
2.43489e-16
2.45274e-16
8.57929e-12
-2.40671e-16
-2.42e-16
8.57874e-12
2.43817e-16
2.33086e-16
8.57924e-12
-2.32512e-16
-2.20305e-16
8.5788e-12
1.96098e-16
1.94743e-16
8.57921e-12
-1.84299e-16
-1.85749e-16
8.57882e-12
1.66721e-16
1.67298e-16
8.57918e-12
-1.56928e-16
-1.58741e-16
1.38222e-16
1.39185e-16
1.78538e-11
1.00509e-11
1.81065e-11
1.60762e-11
1.02066e-12
1.76834e-12
1.66801e-11
-3.65036e-13
-6.08296e-13
1.6511e-11
1.10206e-13
1.80209e-13
1.65768e-11
-4.32073e-14
-6.94782e-14
1.65529e-11
1.6259e-14
2.54535e-14
1.6561e-11
-5.77049e-15
-8.81522e-15
1.65585e-11
2.16343e-15
2.93813e-15
1.65595e-11
-6.87359e-16
-1.00987e-15
1.65591e-11
3.21743e-16
4.88002e-16
1.65595e-11
-1.12878e-16
-3.84428e-16
1.65591e-11
1.24066e-16
4.07803e-16
1.65595e-11
-9.59782e-17
-4.37526e-16
1.6559e-11
1.27564e-16
4.70562e-16
1.65596e-11
-1.09951e-16
-4.97174e-16
1.6559e-11
1.32849e-16
5.17027e-16
1.65596e-11
-1.19359e-16
-5.30193e-16
1.6559e-11
1.22951e-16
5.48683e-16
1.65596e-11
-1.29615e-16
-5.5765e-16
1.6559e-11
1.25903e-16
5.5568e-16
1.65596e-11
-1.31411e-16
-5.46263e-16
1.6559e-11
1.46854e-16
5.26238e-16
1.65595e-11
-1.65509e-16
-4.87263e-16
1.65591e-11
9.37095e-17
4.45372e-16
1.65595e-11
-1.17991e-16
-4.0389e-16
1.65591e-11
8.13057e-17
3.72324e-16
1.65594e-11
-8.81222e-17
-3.44571e-16
6.35888e-17
3.11071e-16
2.12945e-11
3.72262e-12
1.9054e-11
1.99784e-11
3.96854e-13
1.94017e-12
2.04225e-11
-1.40746e-13
-6.69225e-13
2.03054e-11
4.04082e-14
1.87493e-13
2.03509e-11
-1.62751e-14
-7.30773e-14
2.03349e-11
6.25434e-15
2.67727e-14
2.03401e-11
-2.21069e-15
-9.13506e-15
2.03387e-11
9.76082e-16
3.01636e-15
2.03393e-11
-2.80431e-16
-9.84375e-16
2.0339e-11
1.42197e-16
5.10821e-16
2.03394e-11
5.30496e-18
-3.89507e-16
2.0339e-11
4.62117e-18
4.46882e-16
2.03395e-11
2.43188e-17
-4.69116e-16
2.0339e-11
-5.4258e-18
5.1876e-16
2.03395e-11
2.58272e-17
-5.32658e-16
2.0339e-11
-1.20226e-17
5.70092e-16
2.03396e-11
2.74749e-17
-5.74243e-16
2.0339e-11
-2.76109e-17
5.95024e-16
2.03396e-11
2.50092e-17
-6.06015e-16
2.0339e-11
-2.81211e-17
6.03669e-16
2.03395e-11
1.94858e-17
-5.93011e-16
2.03389e-11
1.11906e-17
5.64623e-16
2.03395e-11
-3.20148e-17
-5.41641e-16
2.0339e-11
-2.53065e-17
4.6949e-16
2.03394e-11
2.65056e-18
-4.53351e-16
2.0339e-11
-2.51309e-17
3.9996e-16
2.03394e-11
1.70888e-17
-3.84435e-16
-2.80377e-17
3.34617e-16
2.23106e-11
-3.72283e-12
1.91551e-11
2.11505e-11
-3.96892e-13
1.95403e-12
2.15491e-11
1.40392e-13
-6.80435e-13
2.14425e-11
-3.97803e-14
1.87283e-13
2.14835e-11
1.55997e-14
-7.34298e-14
2.14693e-11
-5.77696e-15
2.69718e-14
2.14738e-11
2.05269e-15
-9.16646e-15
2.14727e-11
-5.27157e-16
3.01701e-15
2.14731e-11
1.85348e-16
-9.52606e-16
2.14729e-11
-6.39178e-17
4.91612e-16
2.14733e-11
8.42829e-17
-3.58001e-16
2.14729e-11
-8.49444e-17
4.23863e-16
2.14734e-11
9.93194e-17
-4.41249e-16
2.14729e-11
-1.02866e-16
4.95564e-16
2.14734e-11
1.10142e-16
-5.00004e-16
2.14729e-11
-1.16659e-16
5.4557e-16
2.14735e-11
1.20114e-16
-5.41815e-16
2.14729e-11
-1.24633e-16
5.6264e-16
2.14735e-11
1.24062e-16
-5.71481e-16
2.14729e-11
-1.28714e-16
5.71407e-16
2.14735e-11
1.18446e-16
-5.59332e-16
2.14728e-11
-8.33904e-17
5.3289e-16
2.14734e-11
8.01824e-17
-5.22724e-16
2.14729e-11
-9.21015e-17
4.34439e-16
2.14733e-11
1.00127e-16
-4.39928e-16
2.14729e-11
-9.41539e-17
3.7969e-16
2.14733e-11
9.9336e-17
-3.75837e-16
-8.49432e-17
3.17e-16
2.12945e-11
-1.00511e-11
1.90539e-11
1.99784e-11
-1.02066e-12
1.94017e-12
2.04225e-11
3.64675e-13
-6.69158e-13
2.03054e-11
-1.09716e-13
1.8747e-13
2.03509e-11
4.2691e-14
-7.30692e-14
2.03349e-11
-1.58386e-14
2.6746e-14
2.03401e-11
5.60394e-15
-9.11253e-15
2.03387e-11
-1.81751e-15
3.005e-15
2.03393e-11
6.28045e-16
-9.95377e-16
2.0339e-11
-2.62034e-16
5.0687e-16
2.03394e-11
1.90589e-16
-3.9965e-16
2.0339e-11
-1.8526e-16
4.48372e-16
2.03395e-11
1.96553e-16
-4.76636e-16
2.0339e-11
-2.11606e-16
5.19734e-16
2.03395e-11
2.22246e-16
-5.38932e-16
2.0339e-11
-2.32281e-16
5.74179e-16
2.03396e-11
2.36427e-16
-5.80924e-16
2.0339e-11
-2.44833e-16
6.02403e-16
2.03396e-11
2.47868e-16
-6.12713e-16
2.0339e-11
-2.51036e-16
6.10275e-16
2.03395e-11
2.42802e-16
-6.00689e-16
2.03389e-11
-2.20749e-16
5.67954e-16
2.03395e-11
2.09896e-16
-5.36468e-16
2.0339e-11
-1.94769e-16
4.81286e-16
2.03394e-11
1.94351e-16
-4.54669e-16
2.0339e-11
-1.77613e-16
4.06428e-16
2.03394e-11
1.76514e-16
-3.86238e-16
-1.52665e-16
3.40928e-16
1.78538e-11
-1.19911e-11
1.81065e-11
1.60762e-11
-1.01114e-12
1.76836e-12
1.66801e-11
3.68412e-13
-6.0834e-13
1.6511e-11
-1.20446e-13
1.80251e-13
1.65768e-11
4.59529e-14
-6.95192e-14
1.65529e-11
-1.68416e-14
2.55156e-14
1.6561e-11
5.93375e-15
-8.8473e-15
1.65585e-11
-1.95576e-15
2.95529e-15
1.65595e-11
7.18391e-16
-1.01069e-15
1.65591e-11
-2.93205e-16
4.85675e-16
1.65595e-11
2.3184e-16
-3.72223e-16
1.65591e-11
-2.10706e-16
3.97397e-16
1.65595e-11
2.33504e-16
-4.22743e-16
1.6559e-11
-2.45659e-16
4.55545e-16
1.65596e-11
2.71058e-16
-4.76606e-16
1.6559e-11
-2.63765e-16
5.03325e-16
1.65596e-11
2.79618e-16
-5.14077e-16
1.6559e-11
-2.87684e-16
5.30776e-16
1.65596e-11
2.91248e-16
-5.40707e-16
1.6559e-11
-2.93738e-16
5.37046e-16
1.65596e-11
2.85e-16
-5.28978e-16
1.6559e-11
-3.00144e-16
4.96731e-16
1.65595e-11
2.6776e-16
-4.64352e-16
1.65591e-11
-2.41298e-16
4.29397e-16
1.65595e-11
2.10818e-16
-3.95784e-16
1.65591e-11
-2.08118e-16
3.60179e-16
1.65594e-11
1.91567e-16
-3.35648e-16
-1.75499e-16
3.03432e-16
1.00382e-11
1.19911e-11
8.01579e-12
1.01129e-12
8.75288e-12
-3.68807e-13
8.5118e-12
1.20711e-13
8.6039e-12
-4.62339e-14
8.56996e-12
1.72259e-14
8.58198e-12
-6.16409e-15
8.57793e-12
2.15254e-15
8.57938e-12
-7.3157e-16
8.57877e-12
3.25386e-16
8.57921e-12
-1.91357e-16
8.5788e-12
1.89591e-16
8.57924e-12
-1.87683e-16
8.57877e-12
2.06449e-16
8.57927e-12
-2.0669e-16
8.57877e-12
2.27613e-16
8.57929e-12
-2.26036e-16
8.57876e-12
2.33747e-16
8.5793e-12
-2.37762e-16
8.57875e-12
2.37202e-16
8.57929e-12
-2.34231e-16
8.57874e-12
2.09964e-16
8.57924e-12
-2.08186e-16
8.5788e-12
1.83103e-16
8.57921e-12
-1.85916e-16
8.57882e-12
1.594e-16
8.57918e-12
-1.55688e-16
1.32942e-16
1.78538e-11
1.81065e-11
1.00509e-11
1.60762e-11
1.76827e-12
1.02074e-12
1.66801e-11
-6.08218e-13
-3.65134e-13
1.6511e-11
1.80219e-13
1.10203e-13
1.65768e-11
-6.94955e-14
-4.31867e-14
1.65529e-11
2.54033e-14
1.63223e-14
1.6561e-11
-8.75002e-15
-5.85401e-15
1.65585e-11
2.93666e-15
2.16848e-15
1.65595e-11
-1.01223e-15
-6.83352e-16
1.65591e-11
4.90679e-16
3.16375e-16
1.65595e-11
-3.80499e-16
-1.16176e-16
1.65591e-11
4.03127e-16
1.28803e-16
1.65595e-11
-4.29902e-16
-1.04328e-16
1.6559e-11
4.67592e-16
1.2968e-16
1.65596e-11
-4.96124e-16
-1.09717e-16
1.6559e-11
5.07036e-16
1.43823e-16
1.65596e-11
-5.23977e-16
-1.26262e-16
1.6559e-11
5.39347e-16
1.33092e-16
1.65596e-11
-5.51255e-16
-1.36809e-16
1.6559e-11
5.46379e-16
1.35849e-16
1.65596e-11
-5.40917e-16
-1.3815e-16
1.6559e-11
5.46407e-16
1.16058e-16
1.65595e-11
-5.04233e-16
-1.36433e-16
1.65591e-11
4.453e-16
9.26952e-17
1.65595e-11
-3.95862e-16
-1.26699e-16
1.65591e-11
3.69361e-16
8.50974e-17
1.65594e-11
-3.38441e-16
-9.54416e-17
3.06627e-16
6.91572e-17
3.58983e-11
1.71673e-11
1.71673e-11
3.54059e-11
2.01464e-12
2.0148e-12
3.55044e-11
-6.5843e-13
-6.58598e-13
3.55238e-11
1.71357e-13
1.71308e-13
3.5522e-11
-6.94842e-14
-6.94288e-14
3.55219e-11
2.63578e-14
2.64851e-14
3.55223e-11
-9.39521e-15
-9.55444e-15
3.55222e-11
3.60539e-15
3.59068e-15
3.55224e-11
-1.18217e-15
-1.17235e-15
3.55225e-11
5.63831e-16
5.52598e-16
3.55225e-11
-2.21076e-16
-2.3002e-16
3.55227e-11
2.26218e-16
2.38436e-16
3.55225e-11
-1.82989e-16
-2.01327e-16
3.55227e-11
2.24902e-16
2.30624e-16
3.55225e-11
-2.08935e-16
-2.11136e-16
3.55228e-11
2.37021e-16
2.60572e-16
3.55226e-11
-2.19757e-16
-2.37732e-16
3.55228e-11
2.28894e-16
2.50853e-16
3.55226e-11
-2.41273e-16
-2.59972e-16
3.55228e-11
2.32181e-16
2.53743e-16
3.55225e-11
-2.46197e-16
-2.62538e-16
3.55227e-11
2.73838e-16
2.12157e-16
3.55225e-11
-2.83806e-16
-2.28024e-16
3.55227e-11
1.94046e-16
1.99261e-16
3.55225e-11
-1.94946e-16
-2.14439e-16
3.55226e-11
1.462e-16
1.56854e-16
3.55225e-11
-1.39041e-16
-1.5518e-16
1.12627e-16
1.26994e-16
4.4731e-11
6.66684e-12
1.88433e-11
4.5537e-11
8.30162e-13
2.31912e-12
4.52182e-11
-2.63362e-13
-7.47285e-13
4.53392e-11
6.28961e-14
1.76333e-13
4.52953e-11
-2.65646e-14
-7.36897e-14
4.53117e-11
1.02956e-14
2.82794e-14
4.53059e-11
-3.66131e-15
-1.0081e-14
4.53082e-11
1.68635e-15
3.77342e-15
4.53077e-11
-5.09101e-16
-1.18023e-15
4.53081e-11
2.78387e-16
5.82399e-16
4.5308e-11
-2.48747e-17
-2.26037e-16
4.53082e-11
4.10299e-17
2.62409e-16
4.5308e-11
1.04094e-17
-2.14502e-16
4.53082e-11
2.09595e-17
2.55847e-16
4.53081e-11
6.50194e-18
-2.20749e-16
4.53084e-11
1.02128e-17
2.93333e-16
4.53081e-11
1.1105e-17
-2.56196e-16
4.53084e-11
-1.02505e-17
2.73518e-16
4.53081e-11
1.93113e-18
-2.82516e-16
4.53084e-11
-1.14959e-17
2.77422e-16
4.53081e-11
-6.61793e-18
-2.85029e-16
4.53082e-11
6.85985e-17
2.16493e-16
4.53081e-11
-9.20118e-17
-2.53153e-16
4.53082e-11
-2.74234e-18
2.04301e-16
4.5308e-11
-9.34202e-18
-2.49522e-16
4.53081e-11
-2.45237e-17
1.66058e-16
4.5308e-11
2.36111e-17
-1.79478e-16
-3.42504e-17
1.37806e-16
4.74229e-11
-6.66712e-12
1.90861e-11
4.8673e-11
-8.30333e-13
2.36488e-12
4.823e-11
2.62672e-13
-7.65257e-13
4.83689e-11
-6.18446e-14
1.74386e-13
4.83159e-11
2.5422e-14
-7.38174e-14
4.8336e-11
-9.47588e-15
2.84296e-14
4.83289e-11
3.37374e-15
-1.01061e-14
4.83317e-11
-8.53282e-16
3.74462e-15
4.8331e-11
3.53222e-16
-1.15728e-15
4.83315e-11
-1.11789e-16
5.69987e-16
4.83314e-11
1.76069e-16
-2.1813e-16
4.83316e-11
-1.51978e-16
2.61623e-16
4.83314e-11
1.90462e-16
-2.11898e-16
4.83317e-11
-1.80507e-16
2.56102e-16
4.83315e-11
2.09719e-16
-2.16675e-16
4.83318e-11
-2.08878e-16
2.95091e-16
4.83316e-11
2.25271e-16
-2.55389e-16
4.83318e-11
-2.33621e-16
2.71818e-16
4.83316e-11
2.32746e-16
-2.81626e-16
4.83318e-11
-2.39767e-16
2.75939e-16
4.83316e-11
2.25371e-16
-2.83115e-16
4.83317e-11
-1.55389e-16
2.00062e-16
4.83315e-11
1.28696e-16
-2.44859e-16
4.83316e-11
-1.92386e-16
1.99459e-16
4.83314e-11
1.75154e-16
-2.55024e-16
4.83315e-11
-1.78687e-16
1.66688e-16
4.83314e-11
1.70542e-16
-1.85584e-16
-1.63434e-16
1.39836e-16
4.4731e-11
-1.71676e-11
1.88434e-11
4.5537e-11
-2.01468e-12
2.31917e-12
4.52182e-11
6.5775e-13
-7.47205e-13
4.53392e-11
-1.70516e-13
1.76194e-13
4.52953e-11
6.85497e-14
-7.35515e-14
4.53117e-11
-2.55726e-14
2.82053e-14
4.53059e-11
9.05605e-15
-1.00586e-14
4.53082e-11
-2.9193e-15
3.67573e-15
4.53077e-11
1.06557e-15
-1.17216e-15
4.53081e-11
-4.29741e-16
5.64775e-16
4.5308e-11
3.41405e-16
-2.47013e-16
4.53082e-11
-3.08329e-16
2.79322e-16
4.5308e-11
3.39914e-16
-2.3851e-16
4.53082e-11
-3.54103e-16
2.77359e-16
4.53081e-11
3.87398e-16
-2.47357e-16
4.53084e-11
-3.87779e-16
3.17723e-16
4.53081e-11
4.04461e-16
-2.88144e-16
4.53084e-11
-4.19055e-16
3.02201e-16
4.53081e-11
4.22678e-16
-3.14054e-16
4.53084e-11
-4.29812e-16
3.06212e-16
4.53081e-11
4.14409e-16
-3.12914e-16
4.53082e-11
-3.89912e-16
2.2156e-16
4.53081e-11
3.56002e-16
-2.54546e-16
4.53082e-11
-3.46889e-16
2.29975e-16
4.5308e-11
3.22535e-16
-2.69539e-16
4.53081e-11
-3.07317e-16
1.91037e-16
4.5308e-11
2.9261e-16
-2.0128e-16
-2.64868e-16
1.62644e-16
3.58983e-11
-1.81067e-11
1.71674e-11
3.54059e-11
-1.76822e-12
2.01483e-12
3.55044e-11
6.07841e-13
-6.58461e-13
3.55238e-11
-1.79881e-13
1.71109e-13
3.5522e-11
6.91037e-14
-6.92208e-14
3.5522e-11
-2.49895e-14
2.63546e-14
3.55223e-11
8.52739e-15
-9.49823e-15
3.55222e-11
-2.64443e-15
3.4439e-15
3.55225e-11
9.72815e-16
-1.15108e-15
3.55225e-11
-4.34669e-16
5.24357e-16
3.55225e-11
4.30387e-16
-2.56085e-16
3.55227e-11
-4.31488e-16
2.6093e-16
3.55225e-11
4.91863e-16
-2.33674e-16
3.55227e-11
-5.22199e-16
2.59694e-16
3.55225e-11
5.75881e-16
-2.4496e-16
3.55228e-11
-5.62268e-16
2.95698e-16
3.55226e-11
5.97217e-16
-2.80404e-16
3.55228e-11
-6.14313e-16
2.90807e-16
3.55226e-11
6.21911e-16
-3.01859e-16
3.55228e-11
-6.25725e-16
2.94279e-16
3.55225e-11
6.07569e-16
-3.00176e-16
3.55227e-11
-6.28418e-16
2.20521e-16
3.55225e-11
5.62361e-16
-2.33582e-16
3.55227e-11
-5.08778e-16
2.31408e-16
3.55225e-11
4.4415e-16
-2.45405e-16
3.55226e-11
-4.35395e-16
1.90449e-16
3.55225e-11
3.99434e-16
-1.88834e-16
-3.65322e-16
1.61507e-16
1.78538e-11
1.0051e-11
1.60762e-11
1.02076e-12
1.66801e-11
-3.65045e-13
1.6511e-11
1.10052e-13
1.65768e-11
-4.3043e-14
1.65529e-11
1.6233e-14
1.6561e-11
-5.83239e-15
1.65585e-11
2.07304e-15
1.65595e-11
-6.76257e-16
1.65591e-11
3.03884e-16
1.65595e-11
-1.4357e-16
1.65591e-11
1.51224e-16
1.65595e-11
-1.35686e-16
1.6559e-11
1.57653e-16
1.65596e-11
-1.43203e-16
1.6559e-11
1.75964e-16
1.65596e-11
-1.64145e-16
1.6559e-11
1.70604e-16
1.65596e-11
-1.74348e-16
1.6559e-11
1.73459e-16
1.65596e-11
-1.71851e-16
1.6559e-11
1.35033e-16
1.65595e-11
-1.51049e-16
1.65591e-11
1.22707e-16
1.65595e-11
-1.50958e-16
1.65591e-11
1.13934e-16
1.65594e-11
-1.21312e-16
9.51018e-17
2.12945e-11
1.90539e-11
3.72263e-12
1.99784e-11
1.94008e-12
3.96973e-13
2.04225e-11
-6.69135e-13
-1.40874e-13
2.03054e-11
1.87515e-13
4.03626e-14
2.03509e-11
-7.3099e-14
-1.6211e-14
2.03349e-11
2.6708e-14
6.32962e-15
2.03401e-11
-9.05561e-15
-2.32427e-15
2.03387e-11
3.0176e-15
9.60252e-16
2.03393e-11
-9.85923e-16
-2.73902e-16
2.0339e-11
5.11971e-16
1.33896e-16
2.03394e-11
-3.8416e-16
-3.74342e-18
2.0339e-11
4.39744e-16
1.75059e-17
2.03395e-11
-4.60087e-16
7.94018e-18
2.0339e-11
5.1417e-16
5.59377e-18
2.03395e-11
-5.29858e-16
1.68876e-17
2.0339e-11
5.58042e-16
8.68114e-18
2.03396e-11
-5.65332e-16
8.47285e-18
2.0339e-11
5.83992e-16
-7.38752e-18
2.03396e-11
-5.96806e-16
5.59273e-18
2.0339e-11
5.927e-16
-7.96501e-18
2.03395e-11
-5.85568e-16
2.28182e-18
2.03389e-11
5.88056e-16
-2.42667e-17
2.03395e-11
-5.59568e-16
-5.54404e-19
2.0339e-11
4.661e-16
-1.85618e-17
2.03394e-11
-4.43772e-16
-1.38605e-17
2.0339e-11
3.95876e-16
-1.35868e-17
2.03394e-11
-3.77691e-16
3.28299e-18
3.28854e-16
-1.42726e-17
4.4731e-11
1.88433e-11
6.66686e-12
4.5537e-11
2.3189e-12
8.30382e-13
4.52182e-11
-7.47073e-13
-2.63576e-13
4.53392e-11
1.76408e-13
6.28055e-14
4.52953e-11
-7.37623e-14
-2.64675e-14
4.53117e-11
2.81129e-14
1.04638e-14
4.53059e-11
-9.88082e-15
-3.87115e-15
4.53082e-11
3.80047e-15
1.64596e-15
4.53077e-11
-1.19173e-15
-4.9417e-16
4.53081e-11
5.95282e-16
2.58534e-16
4.5308e-11
-2.12616e-16
-3.76382e-17
4.53082e-11
2.459e-16
5.87022e-17
4.5308e-11
-1.90311e-16
-1.48205e-17
4.53082e-11
2.47344e-16
3.07863e-17
4.53081e-11
-2.16338e-16
4.69432e-19
4.53084e-11
2.6168e-16
4.25828e-17
4.53081e-11
-2.32827e-16
-1.63288e-17
4.53084e-11
2.44435e-16
2.01828e-17
4.53081e-11
-2.58257e-16
-2.65224e-17
4.53084e-11
2.48803e-16
1.83153e-17
4.53081e-11
-2.64774e-16
-3.1625e-17
4.53082e-11
2.93416e-16
-1.90933e-17
4.53081e-11
-3.17966e-16
-1.22779e-17
4.53082e-11
1.94608e-16
8.42092e-18
4.5308e-11
-2.23454e-16
-3.66449e-17
4.53081e-11
1.52954e-16
-7.27489e-18
4.5308e-11
-1.58946e-16
7.91068e-19
1.19332e-16
-1.13394e-17
5.67358e-11
7.48533e-12
7.48536e-12
5.94106e-11
9.81698e-13
9.81986e-13
5.85224e-11
-3.03827e-13
-3.04099e-13
5.87486e-11
6.40278e-14
6.39064e-14
5.86562e-11
-2.83766e-14
-2.82584e-14
5.8692e-11
1.11051e-14
1.13212e-14
5.86791e-11
-3.87981e-15
-4.14092e-15
5.86841e-11
1.8113e-15
1.7571e-15
5.86827e-11
-5.08578e-16
-4.91962e-16
5.86835e-11
2.9154e-16
2.70441e-16
5.86833e-11
-2.874e-18
-2.07541e-17
5.86836e-11
3.72783e-17
6.05661e-17
5.86834e-11
2.62738e-17
-5.61167e-18
5.86837e-11
1.52776e-17
2.92636e-17
5.86835e-11
2.40135e-17
1.48174e-17
5.86839e-11
2.84922e-18
4.47403e-17
5.86836e-11
2.58042e-17
-8.40773e-18
5.86839e-11
-2.56849e-17
1.2996e-17
5.86836e-11
1.49462e-17
-2.04265e-17
5.86839e-11
-2.70728e-17
1.09785e-17
5.86836e-11
3.92539e-18
-2.58599e-17
5.86837e-11
5.74602e-17
-4.6016e-17
5.86835e-11
-9.06667e-17
-3.11435e-18
5.86837e-11
-2.14999e-17
-5.51967e-18
5.86834e-11
-9.18674e-18
-4.42569e-17
5.86835e-11
-3.71938e-17
-1.69763e-17
5.86833e-11
2.82872e-17
1.9899e-19
-4.34989e-17
-1.59024e-17
6.04544e-11
-7.48576e-12
7.62281e-12
6.37742e-11
-9.81901e-13
1.00917e-12
6.27131e-11
3.03007e-13
-3.12733e-13
6.29528e-11
-6.28062e-14
6.26638e-14
6.28505e-11
2.70803e-14
-2.82453e-14
6.28905e-11
-1.01588e-14
1.1362e-14
6.28761e-11
3.57795e-15
-4.13837e-15
6.28818e-11
-8.64254e-16
1.71247e-15
6.28802e-11
3.67471e-16
-4.7343e-16
6.28811e-11
-1.1915e-16
2.58318e-16
6.28809e-11
1.95278e-16
-2.30661e-17
6.28812e-11
-1.69346e-16
6.77044e-17
6.2881e-11
2.13693e-16
-1.35202e-17
6.28812e-11
-2.03789e-16
3.79988e-17
6.28811e-11
2.3601e-16
7.68476e-18
6.28814e-11
-2.34647e-16
5.6629e-17
6.28812e-11
2.50912e-16
-2.00138e-17
6.28815e-11
-2.61902e-16
2.39036e-17
6.28812e-11
2.58688e-16
-3.24336e-17
6.28815e-11
-2.69659e-16
2.19286e-17
6.28812e-11
2.49027e-16
-3.62937e-17
6.28813e-11
-1.81079e-16
-5.25892e-17
6.28811e-11
1.55448e-16
-4.59569e-19
6.28812e-11
-2.12645e-16
1.34685e-18
6.28809e-11
1.97025e-16
-5.64322e-17
6.2881e-11
-1.99777e-16
-8.43754e-18
6.28809e-11
1.93361e-16
-1.1348e-17
-1.79316e-16
-5.21457e-18
5.67358e-11
-1.88436e-11
7.48543e-12
5.94106e-11
-2.31897e-12
9.82016e-13
5.85224e-11
7.46255e-13
-3.03962e-13
5.87486e-11
-1.7541e-13
6.36998e-14
5.86562e-11
7.26989e-14
-2.80532e-14
5.8692e-11
-2.72199e-14
1.1182e-14
5.86791e-11
9.53401e-15
-4.08197e-15
5.86841e-11
-3.02637e-15
1.62329e-15
5.86827e-11
1.09825e-15
-4.75677e-16
5.86835e-11
-4.59633e-16
2.4844e-16
5.86833e-11
3.77237e-16
-5.21911e-17
5.86836e-11
-3.524e-16
9.03112e-17
5.86834e-11
3.88672e-16
-4.4143e-17
5.86837e-11
-4.07425e-16
6.62593e-17
5.86835e-11
4.42284e-16
-2.84204e-17
5.86839e-11
-4.47428e-16
8.65858e-17
5.86836e-11
4.61928e-16
-5.93738e-17
5.86839e-11
-4.81409e-16
6.08393e-17
5.86836e-11
4.83442e-16
-7.14937e-17
5.86839e-11
-4.94489e-16
5.93642e-17
5.86836e-11
4.73661e-16
-7.28964e-17
5.86837e-11
-4.47041e-16
-2.23041e-17
5.86835e-11
4.13169e-16
-2.08125e-17
5.86837e-11
-3.92994e-16
3.46374e-17
5.86834e-11
3.72279e-16
-7.81506e-17
5.86835e-11
-3.49666e-16
2.0709e-17
5.86833e-11
3.37151e-16
-3.44365e-17
-2.97911e-16
2.17976e-17
4.4731e-11
-1.90541e-11
6.66689e-12
4.5537e-11
-1.94005e-12
8.30416e-13
4.52182e-11
6.68654e-13
-2.63417e-13
4.53392e-11
-1.8707e-13
6.25641e-14
4.52953e-11
7.26162e-14
-2.62055e-14
4.53117e-11
-2.62071e-14
1.02863e-14
4.53059e-11
8.81453e-15
-3.78634e-15
4.53082e-11
-2.66515e-15
1.46508e-15
4.53077e-11
9.61692e-16
-4.59925e-16
4.53081e-11
-4.51733e-16
2.20961e-16
4.5308e-11
4.62394e-16
-6.64594e-17
4.53082e-11
-4.83754e-16
8.61357e-17
4.5308e-11
5.4882e-16
-5.40044e-17
4.53082e-11
-5.89426e-16
6.7987e-17
4.53081e-11
6.41179e-16
-4.25538e-17
4.53084e-11
-6.35535e-16
8.58463e-17
4.53081e-11
6.68325e-16
-6.87537e-17
4.53084e-11
-6.89247e-16
6.95339e-17
4.53081e-11
6.96758e-16
-7.85485e-17
4.53084e-11
-7.02759e-16
6.84832e-17
4.53081e-11
6.78423e-16
-7.85563e-17
4.53082e-11
-6.99288e-16
-2.73337e-18
4.53081e-11
6.35362e-16
-2.35782e-17
4.53082e-11
-5.58787e-16
4.66772e-17
4.5308e-11
5.04884e-16
-7.47952e-17
4.53081e-11
-4.86025e-16
3.43419e-17
4.5308e-11
4.53979e-16
-4.09386e-17
-4.05975e-16
3.21074e-17
2.12945e-11
3.72272e-12
1.99784e-11
3.9693e-13
2.04225e-11
-1.40722e-13
2.03054e-11
4.01615e-14
2.03509e-11
-1.60032e-14
2.03349e-11
6.16615e-15
2.03401e-11
-2.24975e-15
2.03387e-11
8.26604e-16
2.03393e-11
-2.5293e-16
2.0339e-11
1.12052e-16
2.03394e-11
-3.20019e-17
2.0339e-11
4.35859e-17
2.03395e-11
-2.8718e-17
2.0339e-11
3.97922e-17
2.03395e-11
-2.39543e-17
2.0339e-11
4.70188e-17
2.03396e-11
-3.70993e-17
2.0339e-11
3.73018e-17
2.03396e-11
-4.01718e-17
2.0339e-11
3.70125e-17
2.03395e-11
-3.97045e-17
2.03389e-11
3.88808e-18
2.03395e-11
-2.1548e-17
2.0339e-11
1.81151e-17
2.03394e-11
-4.40777e-17
2.0339e-11
2.15331e-17
2.03394e-11
-2.99177e-17
2.00396e-17
2.23106e-11
1.91551e-11
-3.72281e-12
2.11505e-11
1.95396e-12
-3.96766e-13
2.15491e-11
-6.80369e-13
1.4027e-13
2.14425e-11
1.87311e-13
-3.98394e-14
2.14835e-11
-7.34493e-14
1.56695e-14
2.14693e-11
2.6916e-14
-5.70068e-15
2.14738e-11
-9.1033e-15
1.94062e-15
2.14727e-11
3.02611e-15
-5.49009e-16
2.14731e-11
-9.55052e-16
1.89742e-16
2.14729e-11
4.94254e-16
-7.14734e-17
2.14733e-11
-3.53317e-16
7.46006e-17
2.14729e-11
4.18303e-16
-7.06076e-17
2.14734e-11
-4.33613e-16
8.30112e-17
2.14729e-11
4.92663e-16
-8.96375e-17
2.14734e-11
-4.98105e-16
9.83268e-17
2.14729e-11
5.35668e-16
-9.60513e-17
2.14735e-11
-5.3432e-16
9.91806e-17
2.14729e-11
5.53608e-16
-1.04385e-16
2.14735e-11
-5.63685e-16
1.02686e-16
2.14729e-11
5.62509e-16
-1.08521e-16
2.14734e-11
-5.53263e-16
9.98958e-17
2.14728e-11
5.5554e-16
-1.16312e-16
2.14734e-11
-5.40697e-16
1.0838e-16
2.14729e-11
4.30705e-16
-8.27315e-17
2.14733e-11
-4.31755e-16
8.35273e-17
2.14729e-11
3.76005e-16
-8.19224e-17
2.14733e-11
-3.69949e-16
8.63019e-17
3.11173e-16
-6.99465e-17
4.74229e-11
1.90861e-11
-6.6671e-12
4.8673e-11
2.36464e-12
-8.3014e-13
4.823e-11
-7.65034e-13
2.62499e-13
4.83689e-11
1.74478e-13
-6.1943e-14
4.83159e-11
-7.3897e-14
2.55255e-14
4.8336e-11
2.82448e-14
-9.33588e-15
4.83288e-11
-9.89242e-15
3.19679e-15
4.83317e-11
3.78282e-15
-9.04251e-16
4.8331e-11
-1.17016e-15
3.6596e-16
4.83315e-11
5.8471e-16
-1.3254e-16
4.83314e-11
-2.0354e-16
1.64245e-16
4.83316e-11
2.44167e-16
-1.35737e-16
4.83314e-11
-1.864e-16
1.6807e-16
4.83317e-11
2.47353e-16
-1.70344e-16
4.83315e-11
-2.1204e-16
2.01966e-16
4.83318e-11
2.61315e-16
-1.80272e-16
4.83316e-11
-2.30671e-16
1.98935e-16
4.83318e-11
2.41142e-16
-2.06534e-16
4.83316e-11
-2.55951e-16
2.05572e-16
4.83318e-11
2.45833e-16
-2.13204e-16
4.83316e-11
-2.62339e-16
2.01442e-16
4.83317e-11
2.86072e-16
-2.33923e-16
4.83315e-11
-3.15689e-16
1.99668e-16
4.83316e-11
1.87733e-16
-1.79152e-16
4.83314e-11
-2.26876e-16
1.5081e-16
4.83315e-11
1.52861e-16
-1.61433e-16
4.83314e-11
-1.63324e-16
1.49865e-16
1.19909e-16
-1.41352e-16
6.04544e-11
7.62278e-12
-7.48572e-12
6.37742e-11
1.00887e-12
-9.81652e-13
6.27131e-11
-3.12452e-13
3.02791e-13
6.29528e-11
6.28004e-14
-6.29402e-14
6.28505e-11
-2.83707e-14
2.72101e-14
6.28905e-11
1.1132e-14
-9.98761e-15
6.28761e-11
-3.86572e-15
3.36178e-15
6.28818e-11
1.77484e-15
-9.30306e-16
6.28802e-11
-4.9061e-16
3.80762e-16
6.28811e-11
2.80331e-16
-1.41385e-16
6.28809e-11
-3.50296e-18
1.7714e-16
6.28812e-11
4.27878e-17
-1.46439e-16
6.2881e-11
2.0263e-17
1.83279e-16
6.28812e-11
2.31679e-17
-1.8766e-16
6.28811e-11
1.78897e-17
2.22589e-16
6.28814e-11
1.21686e-17
-1.95631e-16
6.28812e-11
1.63632e-17
2.15833e-16
6.28815e-11
-1.69122e-17
-2.2501e-16
6.28812e-11
5.21127e-18
2.2263e-16
6.28815e-11
-1.81586e-17
-2.33243e-16
6.28812e-11
-4.74048e-18
2.17974e-16
6.28813e-11
5.84299e-17
-2.69079e-16
6.28811e-11
-9.30791e-17
2.30094e-16
6.28812e-11
-1.75844e-17
-1.93012e-16
6.28809e-11
-1.92114e-17
1.64248e-16
6.2881e-11
-2.9819e-17
-1.78276e-16
6.28809e-11
1.82642e-17
1.66866e-16
-3.45958e-17
-1.51205e-16
6.45119e-11
-7.62318e-12
-7.62314e-12
6.85482e-11
-1.00905e-12
-1.00878e-12
6.72983e-11
3.11693e-13
3.11458e-13
6.75484e-11
-6.16984e-14
-6.18348e-14
6.7436e-11
2.72105e-14
2.73408e-14
6.74804e-11
-1.02771e-14
-1.00903e-14
6.74645e-11
3.61747e-15
3.38551e-15
6.74708e-11
-9.10767e-16
-9.76958e-16
6.7469e-11
3.75089e-16
3.89355e-16
6.747e-11
-1.28146e-16
-1.50141e-16
6.74698e-11
1.86593e-16
1.67593e-16
6.74701e-11
-1.59006e-16
-1.3541e-16
6.747e-11
2.01942e-16
1.70213e-16
6.74702e-11
-1.90949e-16
-1.74887e-16
6.74701e-11
2.21344e-16
2.08612e-16
6.74704e-11
-2.21672e-16
-1.80524e-16
6.74702e-11
2.33066e-16
1.97609e-16
6.74705e-11
-2.46965e-16
-2.0843e-16
6.74702e-11
2.40353e-16
2.03875e-16
6.74704e-11
-2.54885e-16
-2.16861e-16
6.74702e-11
2.32377e-16
2.01243e-16
6.74702e-11
-1.72115e-16
-2.6609e-16
6.747e-11
1.49734e-16
2.28074e-16
6.74702e-11
-1.98903e-16
-1.792e-16
6.74699e-11
1.86578e-16
1.52044e-16
6.747e-11
-1.87035e-16
-1.65744e-16
6.74698e-11
1.82962e-16
1.55268e-16
-1.6518e-16
-1.36739e-16
6.04544e-11
-1.90864e-11
-7.48566e-12
6.37742e-11
-2.3647e-12
-9.81623e-13
6.27131e-11
7.6428e-13
3.02894e-13
6.29528e-11
-1.73573e-13
-6.31163e-14
6.28505e-11
7.29196e-14
2.7401e-14
6.28905e-11
-2.74166e-14
-1.01214e-14
6.28761e-11
9.58082e-15
3.42513e-15
6.28818e-11
-3.05534e-15
-1.05429e-15
6.28802e-11
1.08667e-15
4.06532e-16
6.28811e-11
-4.54074e-16
-1.66432e-16
6.28809e-11
3.52059e-16
1.57289e-16
6.28812e-11
-3.30701e-16
-1.24456e-16
6.2881e-11
3.63722e-16
1.54585e-16
6.28812e-11
-3.84869e-16
-1.58425e-16
6.28811e-11
4.14024e-16
1.89917e-16
6.28814e-11
-4.21891e-16
-1.62972e-16
6.28812e-11
4.30407e-16
1.76568e-16
6.28815e-11
-4.50687e-16
-1.88446e-16
6.28812e-11
4.50945e-16
1.82985e-16
6.28815e-11
-4.63833e-16
-1.96179e-16
6.28812e-11
4.41828e-16
1.82172e-16
6.28813e-11
-4.1875e-16
-2.52215e-16
6.28811e-11
3.93319e-16
2.16817e-16
6.28812e-11
-3.63384e-16
-1.64707e-16
6.28809e-11
3.55726e-16
1.3608e-16
6.2881e-11
-3.30066e-16
-1.48428e-16
6.28809e-11
3.23903e-16
1.37174e-16
-2.79259e-16
-1.19138e-16
4.74229e-11
-1.91552e-11
-6.66705e-12
4.8673e-11
-1.95393e-12
-8.30158e-13
4.823e-11
6.79964e-13
2.62799e-13
4.83689e-11
-1.86935e-13
-6.23235e-14
4.83159e-11
7.30151e-14
2.59543e-14
4.8336e-11
-2.64726e-14
-9.69991e-15
4.83289e-11
8.89682e-15
3.41334e-15
4.83317e-11
-2.69594e-15
-1.1901e-15
4.8331e-11
9.31721e-16
4.31265e-16
4.83315e-11
-4.2828e-16
-1.95626e-16
4.83314e-11
4.12616e-16
1.265e-16
4.83316e-11
-4.41594e-16
-9.68918e-17
4.83314e-11
5.00946e-16
1.09403e-16
4.83317e-11
-5.46334e-16
-1.13435e-16
4.83315e-11
5.87301e-16
1.36492e-16
4.83318e-11
-5.86333e-16
-1.14304e-16
4.83316e-11
6.10407e-16
1.22985e-16
4.83318e-11
-6.30318e-16
-1.32118e-16
4.83316e-11
6.36328e-16
1.28858e-16
4.83318e-11
-6.43301e-16
-1.38219e-16
4.83316e-11
6.1695e-16
1.29141e-16
4.83317e-11
-6.37421e-16
-1.84945e-16
4.83315e-11
5.89801e-16
1.62619e-16
4.83316e-11
-5.01703e-16
-1.20896e-16
4.83314e-11
4.72775e-16
9.24188e-17
4.83315e-11
-4.50376e-16
-1.0028e-16
4.83314e-11
4.30086e-16
8.57361e-17
-3.74939e-16
-7.44465e-17
2.23106e-11
-3.72272e-12
2.11505e-11
-3.9685e-13
2.15491e-11
1.40481e-13
2.14425e-11
-4.008e-14
2.14835e-11
1.5904e-14
2.14693e-11
-5.91107e-15
2.14738e-11
2.05209e-15
2.14727e-11
-6.86398e-16
2.14731e-11
2.15099e-16
2.14729e-11
-8.66692e-17
2.14733e-11
3.74739e-17
2.14729e-11
-2.99794e-17
2.14734e-11
3.42276e-17
2.14729e-11
-4.12779e-17
2.14734e-11
4.40495e-17
2.14729e-11
-4.04581e-17
2.14735e-11
3.68829e-17
2.14729e-11
-4.22172e-17
2.14735e-11
3.92531e-17
2.14729e-11
-4.53987e-17
2.14735e-11
3.75625e-17
2.14728e-11
-6.60522e-17
2.14734e-11
6.74611e-17
2.14729e-11
-3.20875e-17
2.14733e-11
4.04304e-17
2.14729e-11
-3.85681e-17
2.14733e-11
4.38464e-17
-2.77633e-17
2.12945e-11
1.90539e-11
-1.0051e-11
1.99784e-11
1.94012e-12
-1.0206e-12
2.04225e-11
-6.6912e-13
3.64624e-13
2.03054e-11
1.87492e-13
-1.09756e-13
2.03509e-11
-7.30815e-14
4.27333e-14
2.03349e-11
2.67008e-14
-1.58035e-14
2.03401e-11
-9.06686e-15
5.55177e-15
2.03387e-11
3.01614e-15
-1.83549e-15
2.03393e-11
-9.98725e-16
6.30783e-16
2.0339e-11
5.122e-16
-2.67203e-16
2.03394e-11
-3.96652e-16
1.85349e-16
2.0339e-11
4.46586e-16
-1.77588e-16
2.03395e-11
-4.71176e-16
1.88012e-16
2.0339e-11
5.21708e-16
-2.04827e-16
2.03395e-11
-5.41465e-16
2.15576e-16
2.0339e-11
5.67281e-16
-2.21729e-16
2.03396e-11
-5.77639e-16
2.24676e-16
2.0339e-11
5.96312e-16
-2.34397e-16
2.03396e-11
-6.09152e-16
2.35822e-16
2.0339e-11
6.04474e-16
-2.40713e-16
2.03395e-11
-5.97705e-16
2.31966e-16
2.03389e-11
5.95117e-16
-2.39394e-16
2.03395e-11
-5.61049e-16
2.27068e-16
2.0339e-11
4.78951e-16
-1.88186e-16
2.03394e-11
-4.4877e-16
1.85852e-16
2.0339e-11
4.04336e-16
-1.70347e-16
2.03394e-11
-3.81259e-16
1.6978e-16
3.3724e-16
-1.43771e-16
4.4731e-11
1.88433e-11
-1.71676e-11
4.5537e-11
2.31893e-12
-2.01459e-12
4.52181e-11
-7.4698e-13
6.57679e-13
4.53392e-11
1.76283e-13
-1.70578e-13
4.52953e-11
-7.36262e-14
6.86124e-14
4.53117e-11
2.80132e-14
-2.5518e-14
4.53059e-11
-9.84326e-15
8.98068e-15
4.53082e-11
3.71475e-15
-2.95407e-15
4.53077e-11
-1.18525e-15
1.0706e-15
4.53081e-11
5.79189e-16
-4.41021e-16
4.5308e-11
-2.33477e-16
3.34097e-16
4.53082e-11
2.62342e-16
-2.99273e-16
4.5308e-11
-2.14667e-16
3.27772e-16
4.53082e-11
2.69293e-16
-3.46686e-16
4.53081e-11
-2.43543e-16
3.80517e-16
4.53084e-11
2.85773e-16
-3.72503e-16
4.53081e-11
-2.64137e-16
3.8953e-16
4.53084e-11
2.735e-16
-4.04153e-16
4.53081e-11
-2.8909e-16
4.07457e-16
4.53084e-11
2.78138e-16
-4.14994e-16
4.53081e-11
-2.93231e-16
4.01279e-16
4.53082e-11
3.09114e-16
-4.22028e-16
4.53081e-11
-3.26811e-16
3.83334e-16
4.53082e-11
2.18846e-16
-3.37927e-16
4.5308e-11
-2.42865e-16
3.09335e-16
4.53081e-11
1.77409e-16
-2.97527e-16
4.5308e-11
-1.80103e-16
2.81454e-16
1.43297e-16
-2.52833e-16
5.67358e-11
7.4854e-12
-1.88436e-11
5.94106e-11
9.8172e-13
-2.31884e-12
5.85224e-11
-3.03693e-13
7.46153e-13
5.87486e-11
6.38371e-14
-1.75483e-13
5.86562e-11
-2.81806e-14
7.27666e-14
5.8692e-11
1.09625e-14
-2.71369e-14
5.86791e-11
-3.8196e-15
9.42846e-15
5.86841e-11
1.68759e-15
-3.06323e-15
5.86827e-11
-4.92017e-16
1.10425e-15