/*--------------------------------*- C++ -*----------------------------------*\
  =========                 |
  \\      /  F ield         | OpenFOAM: The Open Source CFD Toolbox
   \\    /   O peration     | Website:  https://openfoam.org
    \\  /    A nd           | Version:  13
     \\/     M anipulation  |
\*---------------------------------------------------------------------------*/
FoamFile
{
    format      ascii;
    class       volVectorField;
    location    "32";
    object      U;
}
// * * * * * * * * * * * * * * * * * * * * * * * * * * * * * * * * * * * * * //

dimensions      [0 1 -1 0 0 0 0];

internalField   nonuniform List<vector> 
1372
(
(0.034479 0.000682163 0.000682163)
(0.0475184 6.51239e-05 6.51236e-05)
(0.039266 -2.72587e-05 -2.72589e-05)
(0.0430862 1.01147e-05 1.01154e-05)
(0.0416355 -3.84347e-06 -3.84372e-06)
(0.042189 1.43539e-06 1.43551e-06)
(0.04198 -5.21692e-07 -5.21997e-07)
(0.042057 1.86793e-07 1.87192e-07)
(0.0420303 -6.60434e-08 -6.60057e-08)
(0.042039 2.76956e-08 2.75643e-08)
(0.0420367 -1.54456e-08 -1.53766e-08)
(0.0420371 1.34003e-08 1.33075e-08)
(0.0420373 -1.31701e-08 -1.31571e-08)
(0.042037 1.40684e-08 1.39042e-08)
(0.0420373 -1.46882e-08 -1.45206e-08)
(0.0420371 1.52871e-08 1.52561e-08)
(0.0420373 -1.56467e-08 -1.55624e-08)
(0.0420372 1.60673e-08 1.60345e-08)
(0.0420373 -1.64526e-08 -1.63725e-08)
(0.0420372 1.62912e-08 1.625e-08)
(0.0420372 -1.62545e-08 -1.62374e-08)
(0.0420372 1.58323e-08 1.53969e-08)
(0.042037 -1.49534e-08 -1.43775e-08)
(0.0420373 1.35427e-08 1.34367e-08)
(0.0420371 -1.21767e-08 -1.21425e-08)
(0.0420372 1.11276e-08 1.11012e-08)
(0.0420371 -1.01197e-08 -1.01371e-08)
(0.0420372 9.39238e-09 9.37118e-09)
(0.0644761 0.00120672 0.00103066)
(0.0909352 0.000113502 0.000119813)
(0.0764535 -3.92167e-05 -4.81892e-05)
(0.0829087 1.17767e-05 1.70021e-05)
(0.0804639 -4.57188e-06 -6.40888e-06)
(0.0813958 1.70064e-06 2.35069e-06)
(0.0810438 -5.99312e-07 -8.41341e-07)
(0.0811738 2.13739e-07 2.99956e-07)
(0.0811286 -7.13755e-08 -1.15237e-07)
(0.0811436 3.32507e-08 5.57281e-08)
(0.0811396 -1.77409e-08 -4.38438e-08)
(0.0811404 1.83996e-08 4.0277e-08)
(0.0811407 -1.74634e-08 -4.26636e-08)
(0.0811402 2.0234e-08 4.27333e-08)
(0.0811407 -2.00616e-08 -4.74907e-08)
(0.0811404 2.1553e-08 4.7426e-08)
(0.0811408 -2.13183e-08 -5.06111e-08)
(0.0811405 2.19313e-08 5.21915e-08)
(0.0811407 -2.26339e-08 -5.37518e-08)
(0.0811406 2.23582e-08 5.26359e-08)
(0.0811406 -2.24033e-08 -5.2972e-08)
(0.0811406 2.33334e-08 5.0042e-08)
(0.0811402 -2.33223e-08 -4.30783e-08)
(0.0811407 1.76386e-08 4.61138e-08)
(0.0811403 -1.78062e-08 -3.50406e-08)
(0.0811405 1.4995e-08 3.44699e-08)
(0.0811403 -1.45789e-08 -2.79003e-08)
(0.0811405 1.21923e-08 2.87355e-08)
(0.0779016 0.000764816 0.0010038)
(0.111236 8.08539e-05 0.000127551)
(0.0943813 -2.78981e-05 -5.22414e-05)
(0.10166 7.98428e-06 1.81329e-05)
(0.0988969 -3.18205e-06 -6.83418e-06)
(0.0999501 1.20615e-06 2.50082e-06)
(0.0995529 -4.2533e-07 -8.88425e-07)
(0.0996994 1.65949e-07 3.14944e-07)
(0.0996488 -5.0029e-08 -1.18801e-07)
(0.0996656 2.40862e-08 5.93559e-08)
(0.0996612 -4.89788e-09 -4.50133e-08)
(0.099662 6.51078e-09 4.28345e-08)
(0.0996625 -3.33107e-09 -4.45433e-08)
(0.0996618 6.30305e-09 4.5471e-08)
(0.0996626 -3.95625e-09 -4.93091e-08)
(0.0996622 6.17978e-09 5.05442e-08)
(0.0996627 -4.40577e-09 -5.31634e-08)
(0.0996623 4.60068e-09 5.49699e-08)
(0.0996626 -5.04739e-09 -5.65871e-08)
(0.0996624 4.76531e-09 5.55502e-08)
(0.0996624 -5.41629e-09 -5.55703e-08)
(0.0996624 7.89735e-09 5.21329e-08)
(0.0996619 -1.04094e-08 -4.60436e-08)
(0.0996625 2.84044e-09 4.72325e-08)
(0.099662 -6.20649e-09 -3.80436e-08)
(0.0996622 2.72907e-09 3.59073e-08)
(0.099662 -3.97437e-09 -3.01955e-08)
(0.0996621 1.71254e-09 3.0383e-08)
(0.0818041 -1.19806e-08 0.00098039)
(0.117286 -3.19339e-09 0.000126676)
(0.0998157 -1.66164e-08 -5.25257e-05)
(0.107267 3.22276e-08 1.81385e-05)
(0.104433 -3.48097e-08 -6.84112e-06)
(0.105513 2.37884e-08 2.50249e-06)
(0.105106 -7.42122e-09 -8.84682e-07)
(0.105256 2.31271e-08 3.11326e-07)
(0.105204 -5.02403e-09 -1.15326e-07)
(0.105222 3.95377e-09 5.71947e-08)
(0.105217 4.51575e-09 -4.22874e-08)
(0.105218 -4.17334e-09 4.06258e-08)
(0.105219 6.29481e-09 -4.20745e-08)
(0.105218 -5.60589e-09 4.32129e-08)
(0.105219 6.91476e-09 -4.62983e-08)
(0.105218 -6.63506e-09 4.8261e-08)
(0.105219 7.56058e-09 -5.02611e-08)
(0.105218 -7.7795e-09 5.2116e-08)
(0.105219 7.6316e-09 -5.34814e-08)
(0.105219 -8.02522e-09 5.26805e-08)
(0.105219 7.01048e-09 -5.25506e-08)
(0.105219 -3.55446e-09 4.84396e-08)
(0.105218 2.5264e-09 -4.31023e-08)
(0.105219 -5.87615e-09 4.40255e-08)
(0.105218 5.34432e-09 -3.67438e-08)
(0.105218 -6.07268e-09 3.40687e-08)
(0.105218 6.01631e-09 -2.9519e-08)
(0.105218 -5.74904e-09 2.92657e-08)
(0.0779016 -0.000764834 0.00100379)
(0.111236 -8.08557e-05 0.000127549)
(0.0943813 2.78611e-05 -5.22366e-05)
(0.10166 -7.92606e-06 1.81348e-05)
(0.0988968 3.12056e-06 -6.83436e-06)
(0.0999501 -1.16009e-06 2.49951e-06)
(0.0995529 4.09041e-07 -8.8494e-07)
(0.0996994 -1.25231e-07 3.12617e-07)
(0.0996488 4.23861e-08 -1.17566e-07)
(0.0996656 -1.71953e-08 5.74557e-08)
(0.0996613 1.38166e-08 -4.4191e-08)
(0.099662 -1.40356e-08 4.14208e-08)
(0.0996625 1.5145e-08 -4.36548e-08)
(0.0996618 -1.644e-08 4.38405e-08)
(0.0996626 1.70375e-08 -4.78749e-08)
(0.0996621 -1.8186e-08 4.93094e-08)
(0.0996627 1.83307e-08 -5.17726e-08)
(0.0996623 -1.9024e-08 5.37319e-08)
(0.0996626 1.91257e-08 -5.51182e-08)
(0.0996624 -1.9589e-08 5.41788e-08)
(0.0996624 1.8549e-08 -5.45403e-08)
(0.0996624 -1.57214e-08 4.88018e-08)
(0.0996619 1.5424e-08 -4.20964e-08)
(0.0996625 -1.44014e-08 4.6545e-08)
(0.099662 1.55652e-08 -3.71762e-08)
(0.0996622 -1.40168e-08 3.52357e-08)
(0.099662 1.46032e-08 -2.98755e-08)
(0.0996621 -1.22169e-08 3.05282e-08)
(0.0644761 -0.00120673 0.00103065)
(0.0909352 -0.000113496 0.000119815)
(0.0764535 3.91826e-05 -4.81948e-05)
(0.0829088 -1.17417e-05 1.70109e-05)
(0.0804639 4.53451e-06 -6.41173e-06)
(0.0813958 -1.66451e-06 2.35453e-06)
(0.0810438 5.82124e-07 -8.3976e-07)
(0.0811738 -1.88292e-07 2.97486e-07)
(0.0811286 6.76842e-08 -1.11517e-07)
(0.0811436 -2.8616e-08 5.29446e-08)
(0.0811396 2.32762e-08 -3.99337e-08)
(0.0811404 -2.22277e-08 3.69147e-08)
(0.0811407 2.44201e-08 -3.88605e-08)
(0.0811402 -2.58907e-08 3.90191e-08)
(0.0811408 2.81338e-08 -4.27233e-08)
(0.0811404 -2.80547e-08 4.37421e-08)
(0.0811409 2.9328e-08 -4.61501e-08)
(0.0811405 -3.02767e-08 4.76633e-08)
(0.0811407 3.06808e-08 -4.90145e-08)
(0.0811406 -3.09508e-08 4.80349e-08)
(0.0811406 3.00695e-08 -4.8562e-08)
(0.0811406 -2.99862e-08 4.30264e-08)
(0.0811402 2.71775e-08 -3.72028e-08)
(0.0811407 -2.49674e-08 4.16155e-08)
(0.0811403 2.2728e-08 -3.30123e-08)
(0.0811405 -2.18214e-08 3.15186e-08)
(0.0811403 2.0597e-08 -2.66236e-08)
(0.0811405 -1.84825e-08 2.72698e-08)
(0.034479 -0.000682166 0.000682162)
(0.0475184 -6.51195e-05 6.51278e-05)
(0.039266 2.72443e-05 -2.72647e-05)
(0.0430862 -1.01047e-05 1.01175e-05)
(0.0416355 3.83176e-06 -3.84542e-06)
(0.0421891 -1.42059e-06 1.44019e-06)
(0.04198 5.13006e-07 -5.24842e-07)
(0.042057 -1.78277e-07 1.87782e-07)
(0.0420303 6.49789e-08 -6.53617e-08)
(0.042039 -2.59102e-08 2.75113e-08)
(0.0420367 1.6797e-08 -1.48641e-08)
(0.0420371 -1.40288e-08 1.31284e-08)
(0.0420373 1.48472e-08 -1.27153e-08)
(0.042037 -1.53569e-08 1.35776e-08)
(0.0420373 1.68297e-08 -1.37707e-08)
(0.0420371 -1.66428e-08 1.50582e-08)
(0.0420373 1.75726e-08 -1.50862e-08)
(0.0420372 -1.80477e-08 1.55681e-08)
(0.0420373 1.83387e-08 -1.58651e-08)
(0.0420372 -1.83628e-08 1.5763e-08)
(0.0420372 1.80549e-08 -1.57334e-08)
(0.0420372 -1.83808e-08 1.38184e-08)
(0.042037 1.63879e-08 -1.34406e-08)
(0.0420373 -1.54627e-08 1.26712e-08)
(0.0420371 1.32236e-08 -1.21939e-08)
(0.0420372 -1.29557e-08 1.0662e-08)
(0.0420371 1.16798e-08 -1.00905e-08)
(0.0420372 -1.11238e-08 9.09144e-09)
(0.0644761 0.00103066 0.00120672)
(0.0909352 0.000119813 0.000113506)
(0.0764535 -4.81878e-05 -3.92225e-05)
(0.0829087 1.70013e-05 1.17773e-05)
(0.0804639 -6.40868e-06 -4.57098e-06)
(0.0813958 2.34961e-06 1.70431e-06)
(0.0810438 -8.39958e-07 -6.0431e-07)
(0.0811738 2.99465e-07 2.14436e-07)
(0.0811286 -1.15341e-07 -7.11082e-08)
(0.0811436 5.5954e-08 3.28213e-08)
(0.0811396 -4.38813e-08 -1.78658e-08)
(0.0811404 4.03571e-08 1.85596e-08)
(0.0811407 -4.25814e-08 -1.79287e-08)
(0.0811402 4.29554e-08 2.01843e-08)
(0.0811407 -4.77434e-08 -1.98684e-08)
(0.0811404 4.7327e-08 2.21492e-08)
(0.0811408 -5.06713e-08 -2.15986e-08)
(0.0811405 5.21166e-08 2.24797e-08)
(0.0811407 -5.38034e-08 -2.29336e-08)
(0.0811406 5.25748e-08 2.28877e-08)
(0.0811406 -5.29621e-08 -2.27369e-08)
(0.0811406 5.10231e-08 2.11736e-08)
(0.0811402 -4.41578e-08 -2.11296e-08)
(0.0811407 4.62487e-08 1.74413e-08)
(0.0811403 -3.49691e-08 -1.82695e-08)
(0.0811405 3.44872e-08 1.51645e-08)
(0.0811403 -2.77926e-08 -1.50126e-08)
(0.0811405 2.87172e-08 1.24676e-08)
(0.134013 0.00198881 0.00198881)
(0.19361 0.000220993 0.000221005)
(0.165574 -7.05985e-05 -7.06114e-05)
(0.177262 1.84846e-05 1.8482e-05)
(0.172836 -7.38977e-06 -7.38639e-06)
(0.174523 2.76677e-06 2.77591e-06)
(0.173884 -9.63746e-07 -9.75226e-07)
(0.174122 3.39574e-07 3.39147e-07)
(0.174038 -1.05603e-07 -1.04984e-07)
(0.174067 4.84414e-08 4.77779e-08)
(0.174059 -2.17428e-08 -2.23693e-08)
(0.174061 2.56668e-08 2.64674e-08)
(0.174061 -2.36894e-08 -2.49867e-08)
(0.17406 2.96718e-08 3.00605e-08)
(0.174061 -2.77117e-08 -2.77915e-08)
(0.174061 3.13489e-08 3.30286e-08)
(0.174062 -2.93817e-08 -3.05103e-08)
(0.174061 3.04504e-08 3.20151e-08)
(0.174061 -3.10514e-08 -3.22227e-08)
(0.174061 3.10776e-08 3.26212e-08)
(0.174061 -3.07311e-08 -3.17386e-08)
(0.174061 3.34317e-08 2.93193e-08)
(0.17406 -3.53934e-08 -3.17342e-08)
(0.174061 2.25011e-08 2.26319e-08)
(0.17406 -2.68073e-08 -2.81869e-08)
(0.174061 2.11806e-08 2.17975e-08)
(0.17406 -2.2976e-08 -2.4089e-08)
(0.174061 1.73274e-08 1.82075e-08)
(0.168162 0.00134116 0.00216857)
(0.24606 0.000166412 0.000253787)
(0.212365 -5.13418e-05 -8.01384e-05)
(0.225681 1.21236e-05 1.91881e-05)
(0.220601 -5.08045e-06 -7.85182e-06)
(0.222539 1.94177e-06 2.95972e-06)
(0.221807 -6.83251e-07 -1.02522e-06)
(0.222079 2.74171e-07 3.54847e-07)
(0.221984 -8.5732e-08 -1.05709e-07)
(0.222016 4.38078e-08 5.19423e-08)
(0.222008 -1.27074e-08 -2.55417e-08)
(0.22201 1.50233e-08 3.27448e-08)
(0.22201 -9.97395e-09 -3.09569e-08)
(0.222009 1.44035e-08 3.72652e-08)
(0.222011 -1.17094e-08 -3.43626e-08)
(0.22201 1.46097e-08 4.12615e-08)
(0.222011 -1.22415e-08 -3.8016e-08)
(0.22201 1.29236e-08 3.99721e-08)
(0.222011 -1.39671e-08 -4.04221e-08)
(0.22201 1.31219e-08 4.06999e-08)
(0.22201 -1.46182e-08 -3.98997e-08)
(0.22201 1.93974e-08 3.58353e-08)
(0.222009 -2.15457e-08 -3.917e-08)
(0.22201 1.05227e-08 2.84942e-08)
(0.222009 -1.24396e-08 -3.50287e-08)
(0.22201 7.34246e-09 2.66865e-08)
(0.222009 -7.59842e-09 -2.94015e-08)
(0.222009 4.94964e-09 2.2082e-08)
(0.178416 -1.80122e-08 0.00219449)
(0.262176 -1.04809e-08 0.000258918)
(0.22697 -3.40571e-08 -8.2125e-05)
(0.240597 5.61257e-08 1.90705e-05)
(0.235375 -6.01006e-08 -7.88594e-06)
(0.237367 4.16547e-08 2.98361e-06)
(0.236616 -1.34298e-08 -1.03131e-06)
(0.236895 4.31058e-08 3.55433e-07)
(0.236798 -7.86294e-09 -1.04178e-07)
(0.236831 8.12243e-09 5.14006e-08)
(0.236822 8.24571e-09 -2.48917e-08)
(0.236824 -6.32541e-09 3.28559e-08)
(0.236825 1.08647e-08 -3.0849e-08)
(0.236824 -8.86012e-09 3.74909e-08)
(0.236825 1.17022e-08 -3.41377e-08)
(0.236825 -1.09171e-08 4.16337e-08)
(0.236826 1.28285e-08 -3.79863e-08)
(0.236825 -1.32386e-08 3.99578e-08)
(0.236826 1.27769e-08 -4.03952e-08)
(0.236825 -1.36479e-08 4.07296e-08)
(0.236825 1.18271e-08 -3.98382e-08)
(0.236825 -4.96187e-09 3.55853e-08)
(0.236824 2.62211e-09 -3.98246e-08)
(0.236825 -1.04519e-08 2.81542e-08)
(0.236824 9.06035e-09 -3.56594e-08)
(0.236824 -1.08223e-08 2.67809e-08)
(0.236824 1.03551e-08 -2.99268e-08)
(0.236824 -1.03527e-08 2.18963e-08)
(0.168162 -0.00134119 0.00216857)
(0.24606 -0.000166424 0.000253792)
(0.212364 5.12724e-05 -8.01337e-05)
(0.225682 -1.20258e-05 1.91789e-05)
(0.220601 4.97317e-06 -7.84477e-06)
(0.222539 -1.85949e-06 2.95627e-06)
(0.221807 6.51782e-07 -1.02561e-06)
(0.222079 -1.95893e-07 3.50558e-07)
(0.221984 7.18353e-08 -1.06806e-07)
(0.222017 -2.84987e-08 5.19033e-08)
(0.222008 2.6794e-08 -2.77791e-08)
(0.22201 -2.50758e-08 3.45365e-08)
(0.22201 2.84616e-08 -3.31755e-08)
(0.222009 -2.93594e-08 3.93558e-08)
(0.222011 3.20911e-08 -3.68853e-08)
(0.22201 -3.26858e-08 4.352e-08)
(0.222011 3.39883e-08 -4.08892e-08)
(0.22201 -3.5334e-08 4.26295e-08)
(0.222011 3.54553e-08 -4.32903e-08)
(0.22201 -3.63006e-08 4.33943e-08)
(0.22201 3.45432e-08 -4.23363e-08)
(0.22201 -2.97992e-08 3.82124e-08)
(0.22201 2.72329e-08 -4.13106e-08)
(0.22201 -2.84638e-08 3.08546e-08)
(0.22201 2.75619e-08 -3.66889e-08)
(0.22201 -2.61174e-08 2.87719e-08)
(0.222009 2.5536e-08 -3.08503e-08)
(0.222009 -2.29467e-08 2.36214e-08)
(0.134013 -0.00198883 0.00198881)
(0.19361 -0.000220994 0.000221007)
(0.165573 7.05449e-05 -7.06042e-05)
(0.177262 -1.84215e-05 1.84689e-05)
(0.172836 7.32371e-06 -7.37779e-06)
(0.174523 -2.70824e-06 2.77336e-06)
(0.173884 9.38537e-07 -9.77516e-07)
(0.174122 -2.93233e-07 3.35203e-07)
(0.174038 1.00222e-07 -1.06914e-07)
(0.174067 -4.084e-08 4.81172e-08)
(0.174059 3.29906e-08 -2.57786e-08)
(0.174061 -3.361e-08 2.92212e-08)
(0.174061 3.73239e-08 -2.83788e-08)
(0.17406 -4.16133e-08 3.29907e-08)
(0.174061 4.39866e-08 -3.14004e-08)
(0.174061 -4.43641e-08 3.64707e-08)
(0.174062 4.55063e-08 -3.47162e-08)
(0.174061 -4.6956e-08 3.60381e-08)
(0.174061 4.70241e-08 -3.65366e-08)
(0.174061 -4.82212e-08 3.66359e-08)
(0.174061 4.57292e-08 -3.55538e-08)
(0.174061 -4.79196e-08 3.21634e-08)
(0.17406 4.59907e-08 -3.40361e-08)
(0.174061 -3.6352e-08 2.64489e-08)
(0.17406 3.7334e-08 -3.05917e-08)
(0.174061 -3.46217e-08 2.48214e-08)
(0.17406 3.47255e-08 -2.60252e-08)
(0.174061 -2.8872e-08 2.04867e-08)
(0.0644761 -0.00103066 0.00120673)
(0.0909352 -0.000119802 0.00011351)
(0.0764535 4.81594e-05 -3.92247e-05)
(0.0829088 -1.69885e-05 1.17737e-05)
(0.0804638 6.38773e-06 -4.56814e-06)
(0.0813958 -2.32086e-06 1.70677e-06)
(0.0810438 8.19764e-07 -6.07276e-07)
(0.0811738 -2.8061e-07 2.12159e-07)
(0.0811286 1.10949e-07 -7.06603e-08)
(0.0811436 -5.01344e-08 3.2534e-08)
(0.0811396 4.35385e-08 -1.85147e-08)
(0.0811404 -3.85928e-08 1.92915e-08)
(0.0811407 4.27721e-08 -1.86886e-08)
(0.0811402 -4.22986e-08 2.09146e-08)
(0.0811408 4.82691e-08 -2.03763e-08)
(0.0811404 -4.6661e-08 2.316e-08)
(0.0811409 5.07006e-08 -2.25687e-08)
(0.0811405 -5.21946e-08 2.34186e-08)
(0.0811407 5.35066e-08 -2.38574e-08)
(0.0811406 -5.27842e-08 2.37856e-08)
(0.0811406 5.28299e-08 -2.34827e-08)
(0.0811406 -5.09728e-08 2.03459e-08)
(0.0811402 4.23302e-08 -2.07838e-08)
(0.0811407 -4.65953e-08 1.78459e-08)
(0.0811403 3.49801e-08 -1.91656e-08)
(0.0811405 -3.57182e-08 1.57935e-08)
(0.0811403 2.95989e-08 -1.58202e-08)
(0.0811405 -3.08945e-08 1.31079e-08)
(0.0779016 0.0010038 0.000764817)
(0.111236 0.000127552 8.08643e-05)
(0.0943813 -5.22409e-05 -2.79102e-05)
(0.10166 1.81321e-05 7.98185e-06)
(0.0988969 -6.83354e-06 -3.17769e-06)
(0.0999501 2.49939e-06 1.21351e-06)
(0.0995529 -8.87181e-07 -4.35723e-07)
(0.0996994 3.14363e-07 1.65423e-07)
(0.0996488 -1.19026e-07 -4.94696e-08)
(0.0996656 5.96737e-08 2.33787e-08)
(0.0996612 -4.52472e-08 -5.54566e-09)
(0.099662 4.29966e-08 7.41431e-09)
(0.0996625 -4.46534e-08 -4.6253e-09)
(0.0996618 4.59426e-08 6.97415e-09)
(0.0996626 -4.97591e-08 -4.38225e-09)
(0.0996622 5.06748e-08 7.84836e-09)
(0.0996627 -5.33138e-08 -5.72453e-09)
(0.0996623 5.5162e-08 6.19361e-09)
(0.0996626 -5.67153e-08 -6.40119e-09)
(0.0996624 5.57771e-08 6.34589e-09)
(0.0996624 -5.55307e-08 -6.62393e-09)
(0.0996624 5.38152e-08 4.41945e-09)
(0.0996619 -4.79443e-08 -7.274e-09)
(0.0996625 4.72524e-08 3.10596e-09)
(0.099662 -3.81326e-08 -7.53612e-09)
(0.0996622 3.59419e-08 3.5029e-09)
(0.099662 -3.01542e-08 -5.08353e-09)
(0.0996621 3.03886e-08 2.69512e-09)
(0.168162 0.00216857 0.00134116)
(0.24606 0.000253771 0.000166433)
(0.212365 -8.01223e-05 -5.13632e-05)
(0.225681 1.91929e-05 1.21164e-05)
(0.220601 -7.85661e-06 -5.0724e-06)
(0.222539 2.94786e-06 1.95785e-06)
(0.221807 -1.01069e-06 -7.03295e-07)
(0.222079 3.56162e-07 2.71362e-07)
(0.221984 -1.06284e-07 -8.44233e-08)
(0.222016 5.256e-08 4.22515e-08)
(0.222008 -2.44876e-08 -1.38985e-08)
(0.22201 3.15599e-08 1.66504e-08)
(0.22201 -2.91695e-08 -1.23217e-08)
(0.222009 3.65366e-08 1.53283e-08)
(0.222011 -3.3991e-08 -1.22007e-08)
(0.22201 3.89297e-08 1.76624e-08)
(0.222011 -3.64362e-08 -1.4653e-08)
(0.22201 3.78026e-08 1.57722e-08)
(0.222011 -3.87907e-08 -1.6464e-08)
(0.22201 3.85503e-08 1.5927e-08)
(0.22201 -3.86289e-08 -1.67459e-08)
(0.22201 4.06704e-08 1.1659e-08)
(0.222009 -4.30533e-08 -1.4726e-08)
(0.22201 2.80353e-08 1.13253e-08)
(0.222009 -3.315e-08 -1.4994e-08)
(0.22201 2.5883e-08 8.79142e-09)
(0.222009 -2.79921e-08 -9.69805e-09)
(0.222009 2.09233e-08 6.87595e-09)
(0.214289 0.00150175 0.00150175)
(0.317636 0.00019776 0.000197788)
(0.276691 -5.92516e-05 -5.92788e-05)
(0.29176 1.23101e-05 1.22997e-05)
(0.285925 -5.42015e-06 -5.41003e-06)
(0.288155 2.09e-06 2.11089e-06)
(0.287316 -7.22029e-07 -7.47172e-07)
(0.287627 2.90452e-07 2.86252e-07)
(0.287519 -8.4531e-08 -8.30766e-08)
(0.287556 4.54139e-08 4.37581e-08)
(0.287547 -9.34651e-09 -1.11203e-08)
(0.287549 1.4712e-08 1.69412e-08)
(0.28755 -7.97203e-09 -1.10639e-08)
(0.287549 1.41853e-08 1.55473e-08)
(0.28755 -9.39151e-09 -1.02347e-08)
(0.28755 1.42501e-08 1.83411e-08)
(0.287551 -1.03792e-08 -1.35246e-08)
(0.28755 1.11966e-08 1.49616e-08)
(0.287551 -1.22847e-08 -1.55334e-08)
(0.28755 1.14916e-08 1.5213e-08)
(0.28755 -1.30735e-08 -1.57382e-08)
(0.28755 1.83207e-08 9.0458e-09)
(0.287549 -2.25622e-08 -1.50006e-08)
(0.28755 7.29819e-09 8.66588e-09)
(0.287549 -1.33672e-08 -1.67581e-08)
(0.287549 5.85875e-09 7.62839e-09)
(0.287549 -8.0623e-09 -1.06978e-08)
(0.287549 3.87794e-09 6.32081e-09)
(0.228376 -2.49804e-08 0.00153004)
(0.339985 -1.37089e-08 0.000203984)
(0.297088 -3.8927e-08 -6.10336e-05)
(0.312438 6.43275e-08 1.20811e-05)
(0.306446 -6.78613e-08 -5.42476e-06)
(0.308738 4.74845e-08 2.12675e-06)
(0.307878 -1.36468e-08 -7.49437e-07)
(0.308197 4.90563e-08 2.82438e-07)
(0.308086 -7.30242e-09 -8.04304e-08)
(0.308124 8.40784e-09 4.22039e-08)
(0.308115 1.01372e-08 -1.01489e-08)
(0.308117 -7.33665e-09 1.67403e-08)
(0.308118 1.26705e-08 -1.06632e-08)
(0.308117 -1.02642e-08 1.55147e-08)
(0.308119 1.37193e-08 -9.67557e-09)
(0.308118 -1.25103e-08 1.84188e-08)
(0.308119 1.47132e-08 -1.33131e-08)
(0.308118 -1.52894e-08 1.46589e-08)
(0.308119 1.4578e-08 -1.52898e-08)
(0.308119 -1.58085e-08 1.49299e-08)
(0.308119 1.33429e-08 -1.52965e-08)
(0.308118 -6.62765e-09 7.21069e-09)
(0.308117 4.09115e-09 -1.40622e-08)
(0.308118 -1.21449e-08 7.83438e-09)
(0.308117 1.01982e-08 -1.73046e-08)
(0.308117 -1.24043e-08 7.61273e-09)
(0.308117 1.17659e-08 -1.13786e-08)
(0.308116 -1.14985e-08 6.52371e-09)
(0.214289 -0.00150179 0.00150176)
(0.317636 -0.000197774 0.000197792)
(0.276691 5.91668e-05 -5.92689e-05)
(0.29176 -1.21938e-05 1.22837e-05)
(0.285925 5.29763e-06 -5.39326e-06)
(0.288155 -1.99525e-06 2.10075e-06)
(0.287316 6.89621e-07 -7.43031e-07)
(0.287627 -2.01786e-07 2.74393e-07)
(0.287519 7.29486e-08 -8.16378e-08)
(0.287556 -2.99569e-08 4.1244e-08)
(0.287547 2.83931e-08 -1.31488e-08)
(0.287549 -2.75294e-08 1.85058e-08)
(0.28755 3.11524e-08 -1.35518e-08)
(0.287549 -3.26661e-08 1.77563e-08)
(0.28755 3.50507e-08 -1.3061e-08)
(0.287549 -3.63806e-08 2.07644e-08)
(0.287551 3.70827e-08 -1.68194e-08)
(0.28755 -3.89204e-08 1.78795e-08)
(0.287551 3.86536e-08 -1.87967e-08)
(0.28755 -4.01412e-08 1.81179e-08)
(0.28755 3.74612e-08 -1.85529e-08)
(0.28755 -3.31479e-08 9.57238e-09)
(0.287549 3.13323e-08 -1.50036e-08)
(0.28755 -3.01968e-08 1.13008e-08)
(0.287549 3.10475e-08 -1.88064e-08)
(0.287549 -2.86105e-08 1.03518e-08)
(0.287549 2.89262e-08 -1.30779e-08)
(0.287549 -2.47775e-08 9.14862e-09)
(0.168162 -0.0021686 0.00134116)
(0.24606 -0.000253773 0.000166437)
(0.212364 8.00553e-05 -5.13479e-05)
(0.225682 -1.91176e-05 1.20935e-05)
(0.220601 7.77856e-06 -5.04842e-06)
(0.222539 -2.87729e-06 1.94226e-06)
(0.221807 9.82411e-07 -6.96438e-07)
(0.222079 -3.01172e-07 2.54541e-07)
(0.221984 1.02365e-07 -8.19091e-08)
(0.222017 -4.38253e-08 3.90681e-08)
(0.222008 3.86003e-08 -1.70189e-08)
(0.22201 -4.05304e-08 1.94746e-08)
(0.22201 4.54216e-08 -1.62349e-08)
(0.222009 -5.009e-08 1.89884e-08)
(0.222011 5.32627e-08 -1.64613e-08)
(0.22201 -5.38172e-08 2.19077e-08)
(0.222011 5.51905e-08 -1.98731e-08)
(0.22201 -5.71607e-08 2.06199e-08)
(0.222011 5.72997e-08 -2.16051e-08)
(0.22201 -5.86065e-08 2.08433e-08)
(0.222011 5.59109e-08 -2.13837e-08)
(0.22201 -5.71254e-08 1.33412e-08)
(0.22201 5.41978e-08 -1.59459e-08)
(0.22201 -4.48574e-08 1.52216e-08)
(0.22201 4.47192e-08 -1.86442e-08)
(0.22201 -4.17531e-08 1.28385e-08)
(0.222009 4.13635e-08 -1.36334e-08)
(0.222009 -3.44584e-08 1.10161e-08)
(0.0779015 -0.0010038 0.000764824)
(0.111236 -0.000127541 8.08633e-05)
(0.0943812 5.22077e-05 -2.78981e-05)
(0.101661 -1.81149e-05 7.96366e-06)
(0.0988968 6.80952e-06 -3.15967e-06)
(0.0999502 -2.46755e-06 1.20084e-06)
(0.0995529 8.65935e-07 -4.31202e-07)
(0.0996995 -2.93293e-07 1.53702e-07)
(0.0996488 1.15253e-07 -4.82132e-08)
(0.0996656 -5.38043e-08 2.16308e-08)
(0.0996613 4.63097e-08 -8.48151e-09)
(0.099662 -4.22222e-08 9.8967e-09)
(0.0996625 4.62124e-08 -8.16006e-09)
(0.0996618 -4.65182e-08 1.01859e-08)
(0.0996626 5.20629e-08 -8.27557e-09)
(0.0996621 -5.11824e-08 1.144e-08)
(0.0996627 5.5049e-08 -1.00368e-08)
(0.0996623 -5.67705e-08 1.04209e-08)
(0.0996626 5.8099e-08 -1.07068e-08)
(0.0996624 -5.75317e-08 1.05828e-08)
(0.0996624 5.6973e-08 -1.04854e-08)
(0.0996624 -5.57568e-08 6.92034e-09)
(0.0996619 4.74796e-08 -9.14858e-09)
(0.0996625 -4.91461e-08 6.57804e-09)
(0.099662 3.87957e-08 -1.02775e-08)
(0.0996621 -3.84236e-08 6.84231e-09)
(0.099662 3.26906e-08 -8.07667e-09)
(0.0996621 -3.35426e-08 5.78922e-09)
(0.0818041 0.00098039 -9.93445e-09)
(0.117286 0.000126679 1.03781e-08)
(0.0998157 -5.25288e-05 -3.03327e-08)
(0.107267 1.8138e-05 2.64009e-08)
(0.104433 -6.84052e-06 -2.75876e-08)
(0.105513 2.50231e-06 3.21011e-08)
(0.105106 -8.85258e-07 -1.96946e-08)
(0.105256 3.11425e-07 2.10753e-08)
(0.105204 -1.15757e-07 -4.47221e-09)
(0.105222 5.79391e-08 3.18879e-09)
(0.105217 -4.27414e-08 3.46955e-09)
(0.105218 4.11334e-08 -2.63895e-09)
(0.105219 -4.24268e-08 4.51371e-09)
(0.105218 4.41739e-08 -4.20569e-09)
(0.105219 -4.71249e-08 5.71054e-09)
(0.105218 4.87772e-08 -4.37181e-09)
(0.105219 -5.07362e-08 5.3481e-09)
(0.105218 5.26804e-08 -5.56596e-09)
(0.105219 -5.39252e-08 5.37445e-09)
(0.105219 5.33205e-08 -5.81331e-09)
(0.105219 -5.26669e-08 5.0569e-09)
(0.105219 5.12087e-08 -7.04403e-09)
(0.105218 -4.64792e-08 5.46228e-09)
(0.105219 4.40826e-08 -4.96106e-09)
(0.105218 -3.71215e-08 3.52933e-09)
(0.105218 3.41684e-08 -4.77728e-09)
(0.105218 -2.95496e-08 4.57045e-09)
(0.105218 2.93226e-08 -4.18784e-09)
(0.178416 0.00219449 -1.51111e-08)
(0.262176 0.0002589 1.30704e-08)
(0.22697 -8.21074e-05 -5.59485e-08)
(0.240597 1.90765e-05 4.51209e-08)
(0.235375 -7.8909e-06 -4.88415e-08)
(0.237367 2.97032e-06 5.85347e-08)
(0.236616 -1.01586e-06 -3.48549e-08)
(0.236895 3.57584e-07 3.81376e-08)
(0.236798 -1.04786e-07 -6.52422e-09)
(0.236831 5.19667e-08 6.19875e-09)
(0.236822 -2.36636e-08 6.69871e-09)
(0.236824 3.14941e-08 -4.20059e-09)
(0.236825 -2.891e-08 8.09377e-09)
(0.236824 3.65553e-08 -7.39979e-09)
(0.236825 -3.35864e-08 1.05794e-08)
(0.236825 3.90513e-08 -7.36455e-09)
(0.236826 -3.62038e-08 9.60046e-09)
(0.236825 3.75726e-08 -9.86715e-09)
(0.236825 -3.8565e-08 9.44838e-09)
(0.236825 3.83469e-08 -1.03228e-08)
(0.236825 -3.8528e-08 8.94933e-09)
(0.236825 4.01129e-08 -1.33472e-08)
(0.236824 -4.30143e-08 9.96716e-09)
(0.236825 2.75377e-08 -8.89908e-09)
(0.236824 -3.35454e-08 6.08589e-09)
(0.236824 2.5917e-08 -8.84046e-09)
(0.236824 -2.84095e-08 7.96315e-09)
(0.236824 2.05972e-08 -7.77939e-09)
(0.228376 0.00153003 -2.12322e-08)
(0.339985 0.000203954 1.70021e-08)
(0.297088 -6.10054e-05 -6.68695e-08)
(0.312438 1.20932e-05 4.98744e-08)
(0.306446 -5.43555e-06 -5.40424e-08)
(0.308738 2.10409e-06 6.89039e-08)
(0.307878 -7.23028e-07 -4.02451e-08)
(0.308197 2.87739e-07 4.25427e-08)
(0.308086 -8.20002e-08 -5.82037e-09)
(0.308124 4.39995e-08 6.34833e-09)
(0.308115 -8.26308e-09 8.01345e-09)
(0.308117 1.43939e-08 -4.57495e-09)
(0.308118 -7.45658e-09 9.15291e-09)
(0.308117 1.40917e-08 -8.24916e-09)
(0.308119 -8.77902e-09 1.21434e-08)
(0.308118 1.41361e-08 -7.9089e-09)
(0.308119 -1.00174e-08 1.07005e-08)
(0.308118 1.07555e-08 -1.09799e-08)
(0.308119 -1.18847e-08 1.04537e-08)
(0.308119 1.10805e-08 -1.15378e-08)
(0.308119 -1.25763e-08 9.91137e-09)
(0.308118 1.7311e-08 -1.6376e-08)
(0.308117 -2.21502e-08 1.19453e-08)
(0.308118 6.29227e-09 -1.00511e-08)
(0.308117 -1.3722e-08 6.35803e-09)
(0.308117 5.76588e-09 -1.00742e-08)
(0.308117 -8.58065e-09 8.77893e-09)
(0.308116 3.94745e-09 -8.39566e-09)
(0.243715 -2.16993e-08 -1.77671e-08)
(0.364406 -1.0934e-08 2.12851e-08)
(0.319435 -3.75307e-08 -6.65408e-08)
(0.335034 5.90271e-08 4.34553e-08)
(0.328884 -6.09008e-08 -4.65987e-08)
(0.331239 4.30722e-08 6.57916e-08)
(0.330357 -1.09394e-08 -3.8812e-08)
(0.330684 4.46379e-08 3.77411e-08)
(0.330571 -5.75684e-09 -4.25439e-09)
(0.33061 7.12015e-09 5.06287e-09)
(0.330601 1.0083e-08 7.74933e-09)
(0.330603 -6.89513e-09 -3.94469e-09)
(0.330604 1.21596e-08 8.39235e-09)
(0.330602 -9.53616e-09 -7.43313e-09)
(0.330604 1.30077e-08 1.13295e-08)
(0.330604 -1.18687e-08 -6.94772e-09)
(0.330605 1.37482e-08 9.50138e-09)
(0.330604 -1.4611e-08 -1.00196e-08)
(0.330605 1.35734e-08 9.20058e-09)
(0.330605 -1.51486e-08 -1.0604e-08)
(0.330605 1.25311e-08 8.86845e-09)
(0.330604 -6.60178e-09 -1.7006e-08)
(0.330603 4.10092e-09 1.23931e-08)
(0.330604 -1.16172e-08 -9.19416e-09)
(0.330603 9.48396e-09 5.40134e-09)
(0.330603 -1.16113e-08 -9.17242e-09)
(0.330602 1.09611e-08 7.83808e-09)
(0.330602 -1.04671e-08 -7.17728e-09)
(0.228376 -0.00153007 -8.87607e-09)
(0.339985 -0.000203967 2.11086e-08)
(0.297088 6.09297e-05 -5.19557e-08)
(0.312438 -1.19904e-05 2.61858e-08)
(0.306446 5.32555e-06 -3.14734e-08)
(0.308738 -2.01846e-06 5.2829e-08)
(0.307878 6.95224e-07 -3.38059e-08)
(0.308197 -2.05767e-07 2.89846e-08)
(0.308086 7.17223e-08 -4.48358e-09)
(0.308124 -2.93068e-08 4.79641e-09)
(0.308115 2.51237e-08 3.94795e-09)
(0.308117 -2.44975e-08 -3.89499e-10)
(0.308118 2.77651e-08 4.21969e-09)
(0.308117 -2.94795e-08 -3.28599e-09)
(0.308119 3.11686e-08 6.47407e-09)
(0.308118 -3.28219e-08 -2.43514e-09)
(0.308119 3.27112e-08 4.1013e-09)
(0.308118 -3.47366e-08 -4.78475e-09)
(0.308119 3.41414e-08 3.7767e-09)
(0.308119 -3.59522e-08 -5.25054e-09)
(0.308119 3.3015e-08 3.64268e-09)
(0.308118 -2.93805e-08 -1.22293e-08)
(0.308117 2.85856e-08 8.54629e-09)
(0.308118 -2.61578e-08 -4.76821e-09)
(0.308117 2.86782e-08 2.08072e-09)
(0.308117 -2.58682e-08 -5.47267e-09)
(0.308117 2.70383e-08 4.70119e-09)
(0.308116 -2.22149e-08 -3.93467e-09)
(0.178416 -0.00219452 -5.36034e-09)
(0.262176 -0.000258901 1.4076e-08)
(0.22697 8.20459e-05 -3.17786e-08)
(0.240597 -1.90087e-05 1.18155e-08)
(0.235375 7.81881e-06 -1.20067e-08)
(0.237367 -2.9048e-06 2.94775e-08)
(0.236616 9.90419e-07 -1.91211e-08)
(0.236895 -3.05295e-07 1.37925e-08)
(0.236798 1.01346e-07 -1.55559e-09)
(0.236831 -4.29874e-08 1.16869e-09)
(0.236822 3.60921e-08 3.13099e-09)
(0.236824 -3.84127e-08 -6.17133e-10)
(0.236825 4.30771e-08 2.89546e-09)
(0.236824 -4.78593e-08 -2.32456e-09)
(0.236825 5.05255e-08 4.74008e-09)
(0.236825 -5.13794e-08 -1.59393e-09)
(0.236826 5.21561e-08 2.75399e-09)
(0.236825 -5.41995e-08 -3.31589e-09)
(0.236826 5.41855e-08 2.57092e-09)
(0.236825 -5.56226e-08 -3.69236e-09)
(0.236825 5.28997e-08 2.63584e-09)
(0.236825 -5.3942e-08 -9.68915e-09)
(0.236824 5.17415e-08 7.18612e-09)
(0.236825 -4.21345e-08 -3.74912e-09)
(0.236824 4.3131e-08 1.03952e-09)
(0.236824 -4.00492e-08 -3.42513e-09)
(0.236824 4.01862e-08 2.46975e-09)
(0.236824 -3.26122e-08 -2.02055e-09)
(0.081804 -0.000980394 1.66079e-09)
(0.117286 -0.000126669 3.87323e-09)
(0.0998156 5.25e-05 -1.09554e-08)
(0.107267 -1.81223e-05 2.83e-09)
(0.104433 6.81866e-06 -4.14021e-09)
(0.105513 -2.47385e-06 1.20572e-08)
(0.105106 8.66977e-07 -9.7856e-09)
(0.105256 -2.92551e-07 6.89688e-09)
(0.105205 1.12771e-07 -2.21185e-09)
(0.105222 -5.2708e-08 1.39602e-09)
(0.105217 4.3703e-08 -1.36011e-10)
(0.105218 -4.03801e-08 1.04731e-09)
(0.105219 4.38238e-08 -1.32391e-10)
(0.105218 -4.47691e-08 3.05914e-10)
(0.105219 4.95388e-08 5.05382e-10)
(0.105218 -4.89535e-08 7.28641e-10)
(0.105219 5.24358e-08 -5.42783e-10)
(0.105218 -5.39711e-08 2.40374e-10)
(0.105219 5.53204e-08 -5.92968e-10)
(0.105219 -5.47442e-08 6.16833e-11)
(0.105219 5.39665e-08 -6.61945e-10)
(0.105219 -5.31748e-08 -2.673e-09)
(0.105218 4.61059e-08 2.00774e-09)
(0.105219 -4.60383e-08 -1.44928e-10)
(0.105218 3.74254e-08 -4.14097e-10)
(0.105218 -3.65428e-08 -5.41058e-10)
(0.105218 3.15659e-08 5.44497e-10)
(0.105218 -3.22424e-08 -7.70857e-11)
(0.0779016 0.00100379 -0.000764832)
(0.111236 0.000127555 -8.0846e-05)
(0.0943813 -5.22416e-05 2.78523e-05)
(0.10166 1.81339e-05 -7.93152e-06)
(0.0988968 -6.83389e-06 3.1265e-06)
(0.0999501 2.49985e-06 -1.15441e-06)
(0.0995529 -8.86502e-07 4.00608e-07)
(0.0996994 3.13302e-07 -1.27386e-07)
(0.0996488 -1.18247e-07 4.27101e-08)
(0.0996656 5.87294e-08 -1.781e-08)
(0.0996612 -4.4938e-08 1.29952e-08)
(0.099662 4.2454e-08 -1.28336e-08)
(0.0996625 -4.42957e-08 1.38213e-08)
(0.0996618 4.5446e-08 -1.53273e-08)
(0.0996626 -4.93484e-08 1.59868e-08)
(0.0996621 5.01888e-08 -1.65367e-08)
(0.0996627 -5.28423e-08 1.65567e-08)
(0.0996623 5.46828e-08 -1.73912e-08)
(0.0996626 -5.61651e-08 1.7312e-08)
(0.0996624 5.52355e-08 -1.7964e-08)
(0.0996624 -5.51059e-08 1.69573e-08)
(0.0996624 5.30146e-08 -1.82429e-08)
(0.0996619 -4.70678e-08 1.76286e-08)
(0.0996625 4.69123e-08 -1.35003e-08)
(0.099662 -3.78056e-08 1.42424e-08)
(0.0996622 3.55865e-08 -1.29686e-08)
(0.099662 -2.99424e-08 1.35813e-08)
(0.0996621 3.08229e-08 -1.09299e-08)
(0.168162 0.00216857 -0.00134118)
(0.24606 0.000253773 -0.00016641)
(0.212364 -8.01165e-05 5.12604e-05)