/*--------------------------------*- C++ -*----------------------------------*\
  =========                 |
  \\      /  F ield         | OpenFOAM: The Open Source CFD Toolbox
   \\    /   O peration     | Website:  https://openfoam.org
    \\  /    A nd           | Version:  13
     \\/     M anipulation  |
\*---------------------------------------------------------------------------*/
FoamFile
{
    format      ascii;
    class       surfaceScalarField;
    location    "35";
    object      phi;
}
// * * * * * * * * * * * * * * * * * * * * * * * * * * * * * * * * * * * * * //

dimensions      [0 3 -1 0 0 0 0];

internalField   nonuniform List<scalar> 
1275
(
2.9652e-12
1.8514e-12
1.8514e-12
2.64092e-12
1.62138e-13
1.62139e-13
2.76549e-12
-6.2284e-14
-6.22836e-14
2.71756e-12
2.39666e-14
2.39665e-14
2.73609e-12
-9.2655e-15
-9.26541e-15
2.72893e-12
3.57943e-15
3.5793e-15
2.73169e-12
-1.38284e-15
-1.38288e-15
2.73059e-12
5.48564e-16
5.48539e-16
2.73106e-12
-2.36796e-16
-2.37491e-16
2.73069e-12
1.57643e-16
1.55881e-16
2.73099e-12
-1.30313e-16
-1.27826e-16
2.73066e-12
1.31317e-16
1.28866e-16
2.73097e-12
-1.28115e-16
-1.24215e-16
2.7307e-12
1.09942e-16
1.07953e-16
2.73094e-12
-9.42068e-17
-9.06401e-17
2.73084e-12
4.73528e-17
4.83287e-17
2.73091e-12
-3.07596e-17
-3.18631e-17
2.73088e-12
1.82026e-17
1.86695e-17
2.73092e-12
-1.96806e-17
-1.98382e-17
1.65794e-17
1.74636e-17
5.01233e-12
8.25279e-13
2.6818e-12
4.83122e-12
8.60426e-14
2.57205e-13
4.90051e-12
-3.3022e-14
-9.85592e-14
4.87403e-12
1.26904e-14
3.77752e-14
4.88425e-12
-4.90569e-15
-1.45906e-14
4.8803e-12
1.89266e-15
5.62851e-15
4.88181e-12
-7.32342e-16
-2.17063e-15
4.88119e-12
2.85356e-16
8.67901e-16
4.88146e-12
-1.29394e-16
-3.88685e-16
4.88114e-12
4.41812e-17
2.89436e-16
4.88142e-12
-4.42546e-17
-2.56294e-16
4.88106e-12
1.9341e-17
2.71652e-16
4.8814e-12
-2.87569e-17
-2.63978e-16
4.88111e-12
1.78238e-17
2.32263e-16
4.88138e-12
-1.33534e-17
-1.9372e-16
4.88129e-12
2.06492e-17
1.04539e-16
4.88137e-12
-4.32868e-18
-6.91752e-17
4.88134e-12
9.54316e-18
4.01804e-17
4.88139e-12
-3.05972e-18
-4.338e-17
7.00461e-18
3.72483e-17
5.54676e-12
-8.25282e-13
2.77181e-12
5.44242e-12
-8.60381e-14
2.76428e-13
5.48231e-12
3.3016e-14
-1.05934e-13
5.46714e-12
-1.26815e-14
4.05478e-14
5.47298e-12
4.89768e-15
-1.56461e-14
5.47073e-12
-1.89124e-15
6.02605e-15
5.47158e-12
7.27943e-16
-2.31965e-15
5.47122e-12
-2.93598e-16
9.27505e-16
5.47138e-12
1.19868e-16
-4.25836e-16
5.47109e-12
-1.2355e-16
3.1682e-16
5.47136e-12
9.55997e-17
-2.96305e-16
5.471e-12
-1.22294e-16
3.0902e-16
5.47134e-12
1.09198e-16
-3.05322e-16
5.47105e-12
-1.00543e-16
2.66631e-16
5.47132e-12
8.73288e-17
-2.19506e-16
5.47124e-12
-2.84842e-17
1.24063e-16
5.47132e-12
2.65989e-17
-7.62875e-17
5.47129e-12
-8.46689e-18
4.61383e-17
5.47135e-12
1.79006e-17
-4.9091e-17
-1.03145e-17
4.46032e-17
5.01233e-12
-1.8514e-12
2.6818e-12
4.83122e-12
-1.62135e-13
2.57206e-13
4.90051e-12
6.22798e-14
-9.85589e-14
4.87403e-12
-2.39612e-14
3.77767e-14
4.88425e-12
9.26139e-15
-1.45935e-14
4.8803e-12
-3.57962e-15
5.62934e-15
4.88181e-12
1.37893e-15
-2.17143e-15
4.88119e-12
-5.53835e-16
8.65413e-16
4.88146e-12
2.31136e-16
-3.92931e-16
4.88114e-12
-2.07248e-16
2.68561e-16
4.88142e-12
1.6676e-16
-2.41625e-16
4.88106e-12
-1.9604e-16
2.4528e-16
4.8814e-12
1.84523e-16
-2.4088e-16
4.88111e-12
-1.60984e-16
2.11062e-16
4.88138e-12
1.45714e-16
-1.72509e-16
4.88129e-12
-5.08206e-17
1.04777e-16
4.88137e-12
4.26793e-17
-6.55102e-17
4.88134e-12
-1.66179e-17
4.15383e-17
4.88139e-12
2.82189e-17
-3.91457e-17
-1.93755e-17
3.68113e-17
2.9652e-12
1.85141e-12
2.64092e-12
1.62142e-13
2.76549e-12
-6.22864e-14
2.71756e-12
2.39698e-14
2.73609e-12
-9.26824e-15
2.72893e-12
3.57932e-15
2.73169e-12
-1.38538e-15
2.73059e-12
5.45777e-16
2.73106e-12
-2.41742e-16
2.73069e-12
1.31383e-16
2.73099e-12
-1.08592e-16
2.73066e-12
9.75908e-17
2.73097e-12
-9.35399e-17
2.7307e-12
8.39061e-17
2.73094e-12
-6.21223e-17
2.73084e-12
4.87233e-17
2.73091e-12
-2.6983e-17
2.73088e-12
1.98971e-17
2.73092e-12
-1.50867e-17
1.53621e-17
5.01233e-12
2.6818e-12
8.25279e-13
4.83122e-12
2.57205e-13
8.6043e-14
4.90051e-12
-9.85598e-14
-3.30211e-14
4.87403e-12
3.77757e-14
1.26898e-14
4.88425e-12
-1.45908e-14
-4.9054e-15
4.8803e-12
5.62861e-15
1.8925e-15
4.88181e-12
-2.17052e-15
-7.32452e-16
4.88119e-12
8.67855e-16
2.8545e-16
4.88146e-12
-3.87753e-16
-1.30808e-16
4.88114e-12
2.92997e-16
4.08121e-17
4.88142e-12
-2.62107e-16
-3.85485e-17
4.88106e-12
2.76443e-16
1.4921e-17
4.8814e-12
-2.72215e-16
-2.0376e-17
4.88111e-12
2.36327e-16
1.41762e-17
4.88138e-12
-2.01245e-16
-5.54508e-18
4.88129e-12
1.02952e-16
2.29396e-17
4.88137e-12
-6.72232e-17
-6.9122e-18
4.88134e-12
3.96312e-17
1.03669e-17
4.88139e-12
-4.30004e-17
-3.46743e-18
3.52113e-17
9.45537e-18
9.41825e-12
1.30669e-12
1.30669e-12
9.64493e-12
1.43873e-13
1.43873e-13
9.55788e-12
-5.50442e-14
-5.50434e-14
9.59132e-12
2.10693e-14
2.10687e-14
9.57843e-12
-8.15469e-15
-8.15424e-15
9.58337e-12
3.15255e-15
3.15207e-15
9.58145e-12
-1.223e-15
-1.22294e-15
9.5822e-12
4.75661e-16
4.75556e-16
9.5818e-12
-2.09449e-16
-2.1085e-16
9.58188e-12
6.3705e-17
5.98309e-17
9.58176e-12
-5.45449e-17
-4.82367e-17
9.58179e-12
1.36631e-17
8.15762e-18
9.58174e-12
-2.391e-17
-1.37789e-17
9.5818e-12
1.31748e-17
8.71832e-18
9.58181e-12
-4.21999e-18
5.21428e-18
9.58194e-12
2.70852e-17
2.95815e-17
9.5819e-12
-3.47394e-18
-6.36086e-18
9.58197e-12
1.20514e-17
1.28019e-17
9.58195e-12
-2.61299e-18
-3.14682e-18
7.28148e-18
1.03457e-17
1.06763e-11
-1.30667e-12
1.37687e-12
1.10844e-11
-1.4387e-13
1.56125e-13
1.09281e-11
5.50294e-14
-5.97148e-14
1.0988e-11
-2.10531e-14
2.28211e-14
1.09648e-11
8.14753e-15
-8.82883e-15
1.09737e-11
-3.15364e-15
3.40926e-15
1.09703e-11
1.21518e-15
-1.32164e-15
1.09716e-11
-4.92015e-16
5.12932e-16
1.0971e-11
1.96812e-16
-2.34113e-16
1.09711e-11
-2.11993e-16
6.09556e-17
1.0971e-11
1.57547e-16
-5.38985e-17
1.0971e-11
-2.06217e-16
8.2916e-18
1.0971e-11
1.85482e-16
-1.37248e-17
1.0971e-11
-1.66948e-16
1.04525e-17
1.0971e-11
1.5526e-16
1.00422e-17
1.09712e-11
-4.34263e-17
3.82639e-17
1.09711e-11
4.8548e-17
-7.99451e-18
1.09712e-11
-1.54482e-17
1.60504e-17
1.09712e-11
2.98956e-17
-2.26752e-18
-1.77997e-17
1.30699e-17
9.41825e-12
-2.68179e-12
1.30668e-12
9.64493e-12
-2.57208e-13
1.43877e-13
9.55788e-12
9.85495e-14
-5.50435e-14
9.59132e-12
-3.7765e-14
2.10695e-14
9.57843e-12
1.45882e-14
-8.15785e-15
9.58337e-12
-5.63164e-15
3.15584e-15
9.58145e-12
2.16731e-15
-1.22357e-15
9.5822e-12
-8.79093e-16
4.75889e-16
9.5818e-12
3.81109e-16
-2.22716e-16
9.58188e-12
-3.80916e-16
7.2471e-17
9.58176e-12
3.23995e-16
-6.85056e-17
9.58179e-12
-3.87106e-16
3.14491e-17
9.58174e-12
3.69151e-16
-3.27964e-17
9.5818e-12
-3.24082e-16
3.10694e-17
9.58181e-12
2.94368e-16
-5.03296e-18
9.58194e-12
-1.12647e-16
4.23063e-17
9.5819e-12
9.62067e-17
-8.62981e-18
9.58197e-12
-4.48479e-17
1.44894e-17
9.58195e-12
5.97116e-17
-2.48865e-19
-4.26805e-17
7.58623e-18
5.01233e-12
8.25294e-13
4.83122e-12
8.60395e-14
4.90051e-12
-3.30267e-14
4.87403e-12
1.26944e-14
4.88425e-12
-4.90428e-15
4.8803e-12
1.89082e-15
4.88181e-12
-7.31263e-16
4.88119e-12
2.8343e-16
4.88146e-12
-1.30296e-16
4.88114e-12
4.36677e-17
4.88142e-12
-4.18485e-17
4.88106e-12
2.29427e-17
4.8814e-12
-2.26722e-17
4.88111e-12
2.15094e-17
4.88138e-12
-3.1319e-18
4.88129e-12
2.25448e-17
4.88137e-12
-1.57572e-18
4.88134e-12
3.92527e-18
4.88139e-12
-1.86301e-18
6.79425e-18
5.54676e-12
2.77181e-12
-8.25282e-13
5.44242e-12
2.76429e-13
-8.60387e-14
5.48231e-12
-1.05934e-13
3.30164e-14
5.46714e-12
4.0548e-14
-1.2682e-14
5.47298e-12
-1.56466e-14
4.89805e-15
5.47073e-12
6.02635e-15
-1.89154e-15
5.47158e-12
-2.31985e-15
7.27991e-16
5.47122e-12
9.27635e-16
-2.9363e-16
5.47138e-12
-4.2644e-16
1.20098e-16
5.47109e-12
3.18713e-16
-1.24997e-16
5.47136e-12
-2.9928e-16
9.8767e-17
5.471e-12
3.12116e-16
-1.24518e-16
5.47134e-12
-3.09844e-16
1.13643e-16
5.47105e-12
2.69357e-16
-1.02494e-16
5.47132e-12
-2.23549e-16
9.12785e-17
5.47124e-12
1.24257e-16
-2.82492e-17
5.47132e-12
-7.58909e-17
2.58636e-17
5.47129e-12
4.67212e-17
-8.59535e-18
5.47135e-12
-4.89576e-17
1.78818e-17
4.33398e-17
-9.22693e-18
1.06763e-11
1.37687e-12
-1.30667e-12
1.10844e-11
1.56125e-13
-1.43869e-13
1.09281e-11
-5.97159e-14
5.503e-14
1.0988e-11
2.28219e-14
-2.10536e-14
1.09648e-11
-8.82934e-15
8.14763e-15
1.09737e-11
3.4097e-15
-3.15374e-15
1.09703e-11
-1.32159e-15
1.21517e-15
1.09716e-11
5.12966e-16
-4.91797e-16
1.0971e-11
-2.32409e-16
1.94825e-16
1.09711e-11
6.64575e-17
-2.11633e-16
1.0971e-11
-6.30878e-17
1.58607e-16
1.0971e-11
1.58888e-17
-2.05169e-16
1.0971e-11
-2.75801e-17
1.87926e-16
1.0971e-11
1.67405e-17
-1.65728e-16
1.0971e-11
-2.74251e-18
1.58133e-16
1.09712e-11
3.51914e-17
-4.02727e-17
1.09711e-11
-4.33784e-18
4.57052e-17
1.09712e-11
1.50974e-17
-1.43677e-17
1.09712e-11
-1.62573e-18
2.94492e-17
9.21681e-18
-1.53924e-17
1.21755e-11
-1.37686e-12
-1.37686e-12
1.28e-11
-1.56119e-13
-1.56119e-13
1.25611e-11
5.96968e-14
5.96976e-14
1.26524e-11
-2.27991e-14
-2.27997e-14
1.26171e-11
8.8154e-15
8.81581e-15
1.26307e-11
-3.40833e-15
-3.4086e-15
1.26254e-11
1.31262e-15
1.31264e-15
1.26275e-11
-5.33923e-16
-5.33826e-16
1.26266e-11
2.03848e-16
2.02646e-16
1.26268e-11
-2.35867e-16
-2.37925e-16
1.26266e-11
1.67632e-16
1.72228e-16
1.26266e-11
-2.25282e-16
-2.2795e-16
1.26266e-11
2.03933e-16
2.11034e-16
1.26267e-11
-1.80239e-16
-1.82361e-16
1.26267e-11
1.76647e-16
1.83448e-16
1.26268e-11
-4.16919e-17
-3.928e-17
1.26268e-11
5.80524e-17
5.53561e-17
1.26269e-11
-1.92909e-17
-1.87133e-17
1.26269e-11
3.94527e-17
3.90243e-17
-2.44236e-17
-2.15759e-17
1.06763e-11
-2.77181e-12
-1.30668e-12
1.10844e-11
-2.7642e-13
-1.43871e-13
1.09281e-11
1.05929e-13
5.50323e-14
1.0988e-11
-4.05408e-14
-2.10554e-14
1.09648e-11
1.56377e-14
8.1482e-15
1.09737e-11
-6.02586e-15
-3.15359e-15
1.09703e-11
2.31191e-15
1.21516e-15
1.09716e-11
-9.38024e-16
-4.91766e-16
1.0971e-11
4.10869e-16
1.92917e-16
1.09711e-11
-4.24289e-16
-2.06199e-16
1.0971e-11
3.76481e-16
1.53519e-16
1.0971e-11
-4.49168e-16
-1.96278e-16
1.0971e-11
4.29896e-16
1.8272e-16
1.0971e-11
-3.76934e-16
-1.57452e-16
1.0971e-11
3.32724e-16
1.55132e-16
1.09712e-11
-1.26637e-16
-3.68658e-17
1.09711e-11
9.67864e-17
4.44458e-17
1.09712e-11
-3.85154e-17
-1.42131e-17
1.09712e-11
6.76966e-17
2.96129e-17
-5.04289e-17
-1.70427e-17
5.54676e-12
-8.25276e-13
5.44242e-12
-8.60366e-14
5.48231e-12
3.30139e-14
5.46714e-12
-1.26801e-14
5.47298e-12
4.89711e-15
5.47073e-12
-1.8917e-15
5.47158e-12
7.28027e-16
5.47122e-12
-2.93982e-16
5.47138e-12
1.17522e-16
5.47109e-12
-1.21175e-16
5.47136e-12
9.50425e-17
5.471e-12
-1.16637e-16
5.47134e-12
1.0993e-16
5.47105e-12
-9.49262e-17
5.47132e-12
8.99344e-17
5.47124e-12
-2.46664e-17
5.47132e-12
2.48614e-17
5.47129e-12
-8.55948e-18
5.47135e-12
1.85291e-17
-1.05696e-17
5.01233e-12
2.6818e-12
-1.8514e-12
4.83122e-12
2.57205e-13
-1.62135e-13
4.90051e-12
-9.85591e-14
6.22796e-14
4.87403e-12
3.77768e-14
-2.39611e-14
4.88425e-12
-1.45934e-14
9.26136e-15
4.8803e-12
5.6294e-15
-3.57956e-15
4.88181e-12
-2.17132e-15
1.37901e-15
4.88119e-12
8.65513e-16
-5.538e-16
4.88146e-12
-3.91672e-16
2.31498e-16
4.88114e-12
2.71523e-16
-2.05498e-16
4.88142e-12
-2.45276e-16
1.64427e-16
4.88106e-12
2.49317e-16
-1.93614e-16
4.8814e-12
-2.46708e-16
1.81205e-16
4.88111e-12
2.14329e-16
-1.58942e-16
4.88138e-12
-1.77863e-16
1.42794e-16
4.88129e-12
1.03284e-16
-5.12396e-17
4.88137e-12
-6.40769e-17
4.32289e-17
4.88134e-12
4.07228e-17
-1.69119e-17
4.88139e-12
-3.87624e-17
2.83104e-17
3.56349e-17
-1.9812e-17
9.41825e-12
1.30668e-12
-2.68179e-12
9.64493e-12
1.43877e-13
-2.57208e-13
9.55788e-12
-5.50443e-14
9.85494e-14
9.59132e-12
2.10701e-14
-3.77649e-14
9.57843e-12
-8.15822e-15
1.4588e-14
9.58337e-12
3.15624e-15
-5.63167e-15
9.58145e-12
-1.22363e-15
2.16731e-15
9.5822e-12
4.75882e-16
-8.79136e-16
9.5818e-12
-2.20857e-16
3.80795e-16
9.58188e-12
7.48522e-17
-3.80349e-16
9.58176e-12
-7.30364e-17
3.22617e-16
9.58179e-12
3.46251e-17
-3.86301e-16
9.58174e-12
-4.05748e-17
3.67572e-16
9.5818e-12
3.34476e-17
-3.23281e-16
9.58181e-12
-1.25713e-17
2.92992e-16
9.58194e-12
3.91851e-17
-1.12494e-16
9.5819e-12
-5.41629e-18
9.63047e-17
9.58197e-12
1.34978e-17
-4.46227e-17
9.58195e-12
3.09419e-19
5.96975e-17
4.43988e-18
-4.30478e-17
1.06763e-11
-1.30668e-12
-2.77181e-12
1.10844e-11
-1.43872e-13
-2.7642e-13
1.09281e-11
5.50317e-14
1.0593e-13
1.0988e-11
-2.10549e-14
-4.0541e-14
1.09648e-11
8.14801e-15
1.56378e-14
1.09737e-11
-3.15339e-15
-6.02583e-15
1.09703e-11
1.21518e-15
2.3118e-15
1.09716e-11
-4.91865e-16
-9.37972e-16
1.0971e-11
1.94532e-16
4.10545e-16
1.09711e-11
-2.04784e-16
-4.26034e-16
1.0971e-11
1.50279e-16
3.79474e-16
1.0971e-11
-1.94606e-16
-4.51446e-16
1.0971e-11
1.77309e-16
4.3382e-16
1.0971e-11
-1.56275e-16
-3.78914e-16
1.0971e-11
1.49808e-16
3.3623e-16
1.09712e-11
-3.95214e-17
-1.26043e-16
1.09711e-11
4.71047e-17
9.59812e-17
1.09712e-11
-1.51178e-17
-3.82859e-17
1.09712e-11
3.00427e-17
6.75746e-17
-1.94716e-17
-4.95976e-17
9.41825e-12
-2.6818e-12
-2.6818e-12
9.64493e-12
-2.57207e-13
-2.57207e-13
9.55788e-12
9.85576e-14
9.85579e-14
9.59132e-12
-3.77733e-14
-3.77736e-14
9.57843e-12
1.45907e-14
1.4591e-14
9.58337e-12
-5.63121e-15
-5.6313e-15
9.58145e-12
2.16608e-15
2.16607e-15
9.5822e-12
-8.74835e-16
-8.74789e-16
9.5818e-12
3.85542e-16
3.85396e-16
9.58188e-12
-3.6036e-16
-3.61382e-16
9.58176e-12
3.1407e-16
3.16264e-16
9.58179e-12
-3.66655e-16
-3.6805e-16
9.58174e-12
3.50265e-16
3.53292e-16
9.5818e-12
-3.07818e-16
-3.09034e-16
9.58181e-12
2.71098e-16
2.73893e-16
9.58194e-12
-1.11541e-16
-1.11018e-16
9.5819e-12
8.50153e-17
8.4252e-17
9.58197e-12
-3.80929e-17
-3.80519e-17
9.58195e-12
5.33054e-17
5.31897e-17
-4.21278e-17
-4.11777e-17
5.01233e-12
-1.8514e-12
4.83122e-12
-1.62138e-13
4.90051e-12
6.22825e-14
4.87403e-12
-2.39647e-14
4.88425e-12
9.26416e-15
4.8803e-12
-3.57981e-15
4.88181e-12
1.38127e-15
4.88119e-12
-5.51231e-16
4.88146e-12
2.34835e-16
4.88114e-12
-1.82097e-16
4.88142e-12
1.47725e-16
4.88106e-12
-1.63326e-16
4.8814e-12
1.54679e-16
4.88111e-12
-1.35307e-16
4.88138e-12
1.18334e-16
4.88129e-12
-5.00095e-17
4.88137e-12
3.73157e-17
4.88134e-12
-1.76201e-17
4.88139e-12
2.38292e-17
-1.82422e-17
2.9652e-12
1.85141e-12
2.64092e-12
1.62142e-13
2.76549e-12
-6.22868e-14
2.71756e-12
2.39701e-14
2.73609e-12
-9.26835e-15
2.72893e-12
3.57945e-15
2.73169e-12
-1.38531e-15
2.73059e-12
5.45787e-16
2.73106e-12
-2.41088e-16
2.73069e-12
1.33437e-16
2.73099e-12
-1.11746e-16
2.73066e-12
1.00391e-16
2.73097e-12
-9.8176e-17
2.7307e-12
8.62231e-17
2.73094e-12
-6.63294e-17
2.73084e-12
4.77469e-17
2.73091e-12
-2.5835e-17
2.73088e-12
1.94508e-17
2.73092e-12
-1.49102e-17
1.43249e-17
5.01233e-12
8.25294e-13
4.83122e-12
8.60396e-14
4.90051e-12
-3.30273e-14
4.87403e-12
1.26949e-14
4.88425e-12
-4.90458e-15
4.8803e-12
1.89096e-15
4.88181e-12
-7.31204e-16
4.88119e-12
2.83357e-16
4.88146e-12
-1.29766e-16
4.88114e-12
4.60932e-17
4.88142e-12
-4.6473e-17
4.88106e-12
2.62162e-17
4.8814e-12
-2.91273e-17
4.88111e-12
2.43134e-17
4.88138e-12
-9.03647e-18
4.88129e-12
2.13214e-17
4.88137e-12
6.7231e-20
4.88134e-12
3.6266e-18
4.88139e-12
-1.64795e-18
5.00455e-18
5.54676e-12
-8.25276e-13
5.44242e-12
-8.60364e-14
5.48231e-12
3.30136e-14
5.46714e-12
-1.26798e-14
5.47298e-12
4.89685e-15
5.47073e-12
-1.89153e-15
5.47158e-12
7.27979e-16
5.47122e-12
-2.94011e-16
5.47138e-12
1.17765e-16
5.47109e-12
-1.20532e-16
5.47136e-12
9.33897e-17
5.471e-12
-1.15703e-16
5.47134e-12
1.07349e-16
5.47105e-12
-9.41604e-17
5.47132e-12
8.74704e-17
5.47124e-12
-2.53706e-17
5.47132e-12
2.5777e-17
5.47129e-12
-8.64409e-18
5.47135e-12
1.86323e-17
-1.16038e-17
5.01233e-12
-1.8514e-12
4.83122e-12
-1.62138e-13
4.90051e-12
6.22825e-14
4.87403e-12
-2.39646e-14
4.88425e-12
9.26412e-15
4.8803e-12
-3.57973e-15
4.88181e-12
1.38121e-15
4.88119e-12
-5.51215e-16
4.88146e-12
2.34932e-16
4.88114e-12
-1.82476e-16
4.88142e-12
1.48264e-16
4.88106e-12
-1.63786e-16
4.8814e-12
1.55124e-16
4.88111e-12
-1.35755e-16
4.88138e-12
1.18665e-16
4.88129e-12
-5.01893e-17
4.88137e-12
3.74685e-17
4.88134e-12
-1.76639e-17
4.88139e-12
2.38166e-17
-1.83269e-17
2.9652e-12
2.64092e-12
2.76549e-12
2.71756e-12
2.73609e-12
2.72893e-12
2.73169e-12
2.73059e-12
2.73106e-12
2.73069e-12
2.73099e-12
2.73066e-12
2.73097e-12
2.7307e-12
2.73094e-12
2.73084e-12
2.73091e-12
2.73088e-12
2.73092e-12
)
;

boundaryField
{
    inlet
    {
        type            calculated;
        value           nonuniform List<scalar> 
25
(
-6.668e-12
-6.668e-12
-6.668e-12
-6.668e-12
-6.668e-12
-6.668e-12
-6.668e-12
-6.668e-12
-6.668e-12
-6.668e-12
-6.668e-12
-6.668e-12
-6.668e-12
-6.668e-12
-6.668e-12
-6.668e-12
-6.668e-12
-6.668e-12
-6.668e-12
-6.668e-12
-6.668e-12
-6.668e-12
-6.668e-12
-6.668e-12
-6.668e-12
)
;
    }
    outlet
    {
        type            calculated;
        value           nonuniform List<scalar> 
25
(
2.73089e-12
4.88136e-12
5.47131e-12
4.88136e-12
2.73089e-12
4.88136e-12
9.58198e-12
1.09712e-11
9.58198e-12
4.88136e-12
5.47131e-12
1.09712e-11
1.26269e-11
1.09712e-11
5.47131e-12
4.88136e-12
9.58198e-12
1.09712e-11
9.58198e-12
4.88136e-12
2.73089e-12
4.88136e-12
5.47131e-12
4.88136e-12
2.73089e-12
)
;
    }
    Walls
    {
        type            calculated;
        value           uniform 0;
    }
}


// ************************************************************************* //
