/*--------------------------------*- C++ -*----------------------------------*\
  =========                 |
  \\      /  F ield         | OpenFOAM: The Open Source CFD Toolbox
   \\    /   O peration     | Website:  https://openfoam.org
    \\  /    A nd           | Version:  13
     \\/     M anipulation  |
\*---------------------------------------------------------------------------*/
FoamFile
{
    format      ascii;
    class       volVectorField;
    location    "35";
    object      U;
}
// * * * * * * * * * * * * * * * * * * * * * * * * * * * * * * * * * * * * * //

dimensions      [0 1 -1 0 0 0 0];

internalField   nonuniform List<vector> 
500
(
(0.00477169 5.5819e-05 5.5819e-05)
(0.00764123 7.20358e-06 7.20359e-06)
(0.00650982 -2.79342e-06 -2.79341e-06)
(0.00695025 1.07936e-06 1.07936e-06)
(0.00677972 -4.17333e-07 -4.17331e-07)
(0.00684571 1.61281e-07 1.61276e-07)
(0.00682021 -6.24127e-08 -6.24123e-08)
(0.00682996 2.46144e-08 2.46125e-08)
(0.00682631 -1.05565e-08 -1.0571e-08)
(0.00682741 6.10921e-09 6.07383e-09)
(0.00682704 -4.81329e-09 -4.7713e-09)
(0.00682708 4.46531e-09 4.41312e-09)
(0.00682701 -4.30542e-09 -4.23089e-09)
(0.00682714 3.74001e-09 3.69877e-09)
(0.00682696 -3.03437e-09 -2.96619e-09)
(0.0068273 1.82815e-09 1.84769e-09)
(0.00682714 -1.10058e-09 -1.12268e-09)
(0.00682726 7.56956e-10 7.66565e-10)
(0.00682724 -7.02584e-10 -7.05345e-10)
(0.00682727 5.97873e-10 6.14323e-10)
(0.00851683 7.80007e-05 7.99181e-05)
(0.0136511 6.86208e-06 1.27627e-05)
(0.0116399 -2.61735e-06 -4.9334e-06)
(0.0124218 1.00264e-06 1.89835e-06)
(0.012119 -3.87306e-07 -7.30894e-07)
(0.0122362 1.49442e-07 2.81489e-07)
(0.0121909 -5.76494e-08 -1.0832e-07)
(0.0122082 2.28584e-08 4.32937e-08)
(0.0122017 -1.00885e-08 -1.90342e-08)
(0.0122038 6.52005e-09 1.57297e-08)
(0.012203 -5.80375e-09 -1.39123e-08)
(0.0122031 5.51421e-09 1.4558e-08)
(0.012203 -5.64561e-09 -1.40737e-08)
(0.0122032 4.67713e-09 1.24927e-08)
(0.0122029 -4.0523e-09 -1.04433e-08)
(0.0122035 2.1539e-09 4.95512e-09)
(0.0122032 -1.23302e-09 -3.23423e-09)
(0.0122034 8.56346e-10 2.109e-09)
(0.0122034 -8.56007e-10 -2.7833e-09)
(0.0122034 7.76602e-10 1.79999e-09)
(0.0095419 4.59772e-11 7.77854e-05)
(0.0152987 1.38778e-10 1.38338e-05)
(0.0130481 -1.8338e-10 -5.34837e-06)
(0.0139225 2.74762e-10 2.05667e-06)
(0.0135839 -2.56411e-10 -7.91373e-07)
(0.013715 4.73798e-11 3.04424e-07)
(0.0136643 -1.18281e-10 -1.16933e-07)
(0.0136837 -2.37803e-10 4.67242e-08)
(0.0136764 -2.72802e-10 -2.10529e-08)
(0.0136787 -2.25742e-09 1.70485e-08)
(0.0136779 1.45839e-09 -1.56296e-08)
(0.013678 -2.91044e-09 1.60672e-08)
(0.0136779 2.26833e-09 -1.57559e-08)
(0.0136781 -2.34571e-09 1.38628e-08)
(0.0136778 2.08592e-09 -1.15829e-08)
(0.0136784 -2.21706e-10 5.87033e-09)
(0.0136781 6.25977e-10 -3.73233e-09)
(0.0136783 2.35706e-11 2.60115e-09)
(0.0136783 4.34434e-10 -2.98577e-09)
(0.0136783 -8.99641e-11 2.10798e-09)
(0.00851683 -7.80007e-05 7.99181e-05)
(0.0136511 -6.86187e-06 1.27628e-05)
(0.0116399 2.61707e-06 -4.9335e-06)
(0.0124218 -1.00226e-06 1.8986e-06)
(0.012119 3.86997e-07 -7.31212e-07)
(0.0122362 -1.49415e-07 2.81498e-07)
(0.0121909 5.74246e-08 -1.08314e-07)
(0.0122082 -2.32212e-08 4.31071e-08)
(0.0122017 9.68586e-09 -1.92165e-08)
(0.0122038 -9.96933e-09 1.44367e-08)
(0.012203 8.1564e-09 -1.29754e-08)
(0.0122031 -1.00027e-08 1.30777e-08)
(0.012203 9.3226e-09 -1.27905e-08)
(0.0122032 -8.2526e-09 1.12486e-08)
(0.0122029 7.42832e-09 -9.25829e-09)
(0.0122035 -2.45741e-09 4.90806e-09)
(0.0122032 2.15717e-09 -3.02769e-09)
(0.0122034 -7.90019e-10 2.08205e-09)
(0.0122034 1.47598e-09 -2.40796e-09)
(0.0122034 -9.45101e-10 1.75124e-09)
(0.00477169 -5.5819e-05 5.58191e-05)
(0.00764123 -7.20349e-06 7.20377e-06)
(0.00650982 2.79335e-06 -2.79348e-06)
(0.00695025 -1.07927e-06 1.07945e-06)
(0.00677972 4.17267e-07 -4.17461e-07)
(0.00684571 -1.61296e-07 1.61312e-07)
(0.00682021 6.22963e-08 -6.25e-08)
(0.00682996 -2.47368e-08 2.45564e-08)
(0.00682631 1.04129e-08 -1.07222e-08)
(0.00682741 -7.33878e-09 5.46379e-09)
(0.00682704 5.7391e-09 -4.27704e-09)
(0.00682708 -6.10237e-09 3.62648e-09)
(0.00682701 5.75572e-09 -3.44337e-09)
(0.00682714 -5.01708e-09 3.10022e-09)
(0.00682696 4.34831e-09 -2.2558e-09)
(0.0068273 -1.90217e-09 1.91184e-09)
(0.00682714 1.38273e-09 -1.06923e-09)
(0.00682726 -6.8764e-10 8.5738e-10)
(0.00682724 8.89771e-10 -5.81277e-10)
(0.00682727 -6.67182e-10 5.65104e-10)
(0.00851683 7.99181e-05 7.80007e-05)
(0.0136511 1.27626e-05 6.86211e-06)
(0.0116399 -4.93342e-06 -2.61731e-06)
(0.0124218 1.89836e-06 1.00262e-06)
(0.012119 -7.30898e-07 -3.87298e-07)
(0.0122362 2.81495e-07 1.49436e-07)
(0.0121909 -1.08318e-07 -5.76563e-08)
(0.0122082 4.3295e-08 2.28617e-08)
(0.0122017 -1.8998e-08 -1.01626e-08)
(0.0122038 1.58127e-08 6.36125e-09)
(0.012203 -1.40258e-08 -5.55226e-09)
(0.0122031 1.46728e-08 5.30617e-09)
(0.012203 -1.42555e-08 -5.27109e-09)
(0.0122032 1.25849e-08 4.5074e-09)
(0.0122029 -1.06107e-08 -3.70483e-09)
(0.0122035 4.90499e-09 2.26207e-09)
(0.0122032 -3.17959e-09 -1.35016e-09)
(0.0122034 2.08552e-09 9.03227e-10)
(0.0122034 -2.77594e-09 -8.74249e-10)
(0.0122034 1.75746e-09 8.76331e-10)
(0.0166939 0.0001212 0.0001212)
(0.0267839 1.18082e-05 1.18082e-05)
(0.0228581 -4.48777e-06 -4.48772e-06)
(0.0243799 1.7126e-06 1.71257e-06)
(0.0237905 -6.63647e-07 -6.63625e-07)
(0.0240187 2.56567e-07 2.56554e-07)
(0.0239304 -9.93093e-08 -9.93129e-08)
(0.0239643 3.91835e-08 3.91837e-08)
(0.0239515 -1.75847e-08 -1.76433e-08)
(0.0239557 8.6297e-09 8.39066e-09)
(0.0239542 -7.44654e-09 -7.04814e-09)
(0.0239545 6.38013e-09 6.0523e-09)
(0.0239543 -6.66402e-09 -6.0852e-09)
(0.0239546 5.416e-09 5.13946e-09)
(0.0239542 -4.44756e-09 -3.91668e-09)
(0.023955 3.58476e-09 3.69506e-09)
(0.0239546 -1.97984e-09 -2.11746e-09)
(0.0239549 1.43911e-09 1.47026e-09)
(0.0239549 -6.56384e-10 -6.84321e-10)
(0.0239549 1.10458e-09 1.2598e-09)
(0.0191059 7.0788e-10 0.000128589)
(0.0306632 -1.38054e-10 1.29333e-05)
(0.0261757 -4.95368e-10 -4.91188e-06)
(0.0279133 5.45867e-10 1.87058e-06)
(0.0272403 -1.47826e-10 -7.23764e-07)
(0.0275009 -1.16633e-10 2.79339e-07)
(0.0274 -1.57734e-10 -1.07977e-07)
(0.0274388 -5.24643e-10 4.26137e-08)
(0.0274241 -2.49353e-10 -1.93063e-08)
(0.027429 -4.29112e-09 9.91884e-09)
(0.0274272 2.96817e-09 -8.86842e-09)
(0.0274276 -5.49103e-09 7.95736e-09)
(0.0274273 4.60678e-09 -7.93583e-09)
(0.0274277 -4.412e-09 6.85067e-09)
(0.0274272 4.36603e-09 -4.96318e-09)
(0.0274281 -6.09178e-10 4.31466e-09)
(0.0274277 1.46303e-09 -2.14597e-09)
(0.027428 -2.93045e-10 1.38086e-09)
(0.027428 8.1483e-10 -1.06119e-09)
(0.027428 -3.07567e-10 1.55905e-09)
(0.0166939 -0.0001212 0.0001212)
(0.0267839 -1.1808e-05 1.1808e-05)
(0.0228581 4.48714e-06 -4.48773e-06)
(0.0243799 -1.71182e-06 1.71253e-06)
(0.0237905 6.63114e-07 -6.63476e-07)
(0.0240187 -2.56577e-07 2.56563e-07)
(0.0239304 9.9071e-08 -9.93109e-08)
(0.0239643 -3.99662e-08 3.9161e-08)
(0.0239515 1.68985e-08 -1.78665e-08)
(0.0239557 -1.53579e-08 8.71092e-09)
(0.0239542 1.20452e-08 -7.56408e-09)
(0.0239545 -1.48793e-08 6.59088e-09)
(0.0239543 1.37613e-08 -6.43788e-09)
(0.0239546 -1.22505e-08 5.69721e-09)
(0.0239542 1.11281e-08 -3.97846e-09)
(0.023955 -4.18925e-09 3.91515e-09)
(0.0239546 3.87947e-09 -1.95433e-09)
(0.0239549 -1.57036e-09 1.37121e-09)
(0.0239549 2.0313e-09 -6.87079e-10)
(0.0239549 -1.58007e-09 1.17173e-09)
(0.00851683 -7.99178e-05 7.80013e-05)
(0.0136511 -1.27625e-05 6.86204e-06)
(0.0116399 4.93324e-06 -2.61757e-06)
(0.0124218 -1.89825e-06 1.00288e-06)
(0.012119 7.30929e-07 -3.87344e-07)
(0.0122362 -2.8151e-07 1.49366e-07)
(0.0121909 1.08021e-07 -5.76837e-08)
(0.0122082 -4.34621e-08 2.26919e-08)
(0.0122017 1.87249e-08 -1.02355e-08)
(0.0122038 -1.77888e-08 5.54086e-09)
(0.012203 1.55362e-08 -4.94432e-09)
(0.0122031 -1.74323e-08 4.38948e-09)
(0.012203 1.68305e-08 -4.25893e-09)
(0.0122032 -1.46444e-08 3.81185e-09)
(0.0122029 1.29776e-08 -2.63291e-09)
(0.0122035 -4.96596e-09 2.1862e-09)
(0.0122032 3.71274e-09 -9.64505e-10)
(0.0122034 -1.92099e-09 6.99618e-10)
(0.0122034 2.97275e-09 -6.51908e-10)
(0.0122034 -1.92285e-09 7.315e-10)
(0.0095419 7.77854e-05 5.46062e-11)
(0.0152987 1.38339e-05 1.30285e-10)
(0.0130481 -5.34837e-06 -1.48216e-10)
(0.0139225 2.05666e-06 2.46132e-10)
(0.0135839 -7.91399e-07 -2.36468e-10)
(0.013715 3.04458e-07 3.60726e-11)
(0.0136643 -1.16961e-07 -1.21149e-10)
(0.0136837 4.67438e-08 -2.3503e-10)
(0.0136764 -2.11109e-08 -3.02153e-10)
(0.0136787 1.69983e-08 -2.40468e-09)
(0.0136779 -1.54988e-08 1.73233e-09)
(0.013678 1.60508e-08 -3.11235e-09)
(0.0136779 -1.56546e-08 2.65439e-09)
(0.0136781 1.38415e-08 -2.51803e-09)
(0.0136778 -1.14891e-08 2.43826e-09)
(0.0136784 5.92613e-09 -1.53684e-10)
(0.0136781 -3.77129e-09 5.32596e-10)
(0.0136783 2.64753e-09 4.04984e-11)
(0.0136783 -2.99895e-09 4.22112e-10)
(0.0136783 2.11777e-09 1.3208e-11)
(0.0191059 0.000128589 6.73958e-10)
(0.0306632 1.29333e-05 -1.10256e-10)
(0.0261757 -4.91193e-06 -4.49567e-10)
(0.0279133 1.87061e-06 5.11337e-10)
(0.0272403 -7.23768e-07 -1.33043e-10)
(0.0275009 2.79334e-07 -1.30874e-10)
(0.0274 -1.07954e-07 -1.60563e-10)
(0.0274388 4.26014e-08 -5.18687e-10)
(0.0274241 -1.91803e-08 -3.59269e-10)
(0.027429 1.02467e-08 -4.41456e-09)
(0.0274272 -9.42523e-09 3.21949e-09)
(0.0274276 8.37345e-09 -5.64308e-09)
(0.0274273 -8.70563e-09 5.01518e-09)
(0.0274277 7.20234e-09 -4.52554e-09)
(0.0274272 -5.67216e-09 4.76264e-09)
(0.0274281 4.12734e-09 -4.32007e-10)
(0.0274277 -1.94085e-09 1.28444e-09)
(0.027428 1.3016e-09 -2.3069e-10)
(0.027428 -1.01881e-09 7.84939e-10)
(0.027428 1.36443e-09 -1.43718e-10)
(0.0219795 2.57467e-10 2.70727e-10)
(0.0352861 1.32891e-10 1.14949e-10)
(0.0301302 -5.90845e-10 -5.32478e-10)
(0.0321241 7.25652e-10 6.79446e-10)
(0.0313517 -4.39023e-10 -4.06534e-10)
(0.0316508 7.95617e-12 -1.02894e-11)
(0.031535 -2.17842e-10 -2.20579e-10)
(0.0315796 -6.35304e-10 -6.31511e-10)
(0.0315627 -8.13648e-10 -8.73886e-10)
(0.0315683 -4.93812e-09 -5.19025e-09)
(0.0315663 3.03597e-09 3.50467e-09)
(0.0315667 -6.0367e-09 -6.38016e-09)
(0.0315664 5.06372e-09 5.73952e-09)
(0.0315668 -4.73601e-09 -5.02641e-09)
(0.0315663 5.00942e-09 5.6329e-09)
(0.0315673 -2.21605e-10 -8.48852e-11)
(0.0315668 1.58188e-09 1.4072e-09)
(0.0315672 -1.77796e-10 -1.49195e-10)
(0.0315672 1.12559e-09 1.09628e-09)
(0.0315672 -4.13751e-10 -2.13241e-10)
(0.0191059 -0.000128588 1.535e-10)
(0.0306632 -1.2934e-05 6.18813e-11)
(0.0261757 4.91107e-06 -3.60224e-10)
(0.0279133 -1.86953e-06 4.57516e-10)
(0.0272403 7.23492e-07 -2.60169e-10)
(0.0275009 -2.79744e-07 1.65486e-11)
(0.0274 1.07842e-07 -2.03787e-10)
(0.0274388 -4.37636e-08 -4.866e-10)
(0.0274241 1.86451e-08 -7.56988e-10)
(0.027429 -1.86354e-08 -3.91797e-09)
(0.0274272 1.51522e-08 2.55435e-09)
(0.0274276 -1.86698e-08 -4.80539e-09)
(0.0274273 1.75061e-08 4.37848e-09)
(0.0274277 -1.54863e-08 -3.72417e-09)
(0.0274272 1.42275e-08 4.37545e-09)
(0.0274281 -5.22475e-09 4.24004e-11)
(0.0274277 4.85527e-09 1.10767e-09)
(0.027428 -2.09635e-09 -9.96568e-11)
(0.027428 2.84051e-09 8.4954e-10)
(0.027428 -2.07651e-09 -2.47541e-10)
(0.0095419 -7.77864e-05 4.48112e-10)
(0.0152987 -1.38324e-05 -2.49206e-11)
(0.0130481 5.3485e-06 -3.81105e-10)
(0.0139225 -2.05683e-06 4.31335e-10)
(0.0135839 7.90862e-07 -1.70125e-10)
(0.013715 -3.03943e-07 -6.87895e-11)
(0.0136643 1.16308e-07 -5.50769e-11)
(0.0136837 -4.66623e-08 -3.24532e-10)
(0.0136764 2.00488e-08 -3.20764e-10)
(0.0136787 -1.88149e-08 -2.23097e-09)
(0.0136779 1.68091e-08 1.53402e-09)
(0.013678 -1.88729e-08 -2.65421e-09)
(0.0136779 1.82243e-08 2.48157e-09)
(0.0136781 -1.57915e-08 -2.09503e-09)
(0.0136778 1.35726e-08 2.49735e-09)
(0.0136784 -5.10595e-09 -1.13936e-10)
(0.0136781 3.37224e-09 7.28238e-10)
(0.0136783 -1.41816e-09 -2.14223e-10)
(0.0136783 3.10611e-09 4.91569e-10)
(0.0136783 -2.19937e-09 -1.03554e-10)
(0.00851683 7.99182e-05 -7.80007e-05)
(0.0136511 1.27627e-05 -6.8619e-06)
(0.0116399 -4.9335e-06 2.61707e-06)
(0.0124218 1.8986e-06 -1.00227e-06)
(0.012119 -7.31207e-07 3.87007e-07)
(0.0122362 2.8152e-07 -1.49423e-07)
(0.0121909 -1.08323e-07 5.74312e-08)
(0.0122082 4.31193e-08 -2.32229e-08)
(0.0122017 -1.9144e-08 9.71654e-09)
(0.0122038 1.4403e-08 -9.93359e-09)
(0.012203 -1.28425e-08 8.1333e-09)
(0.0122031 1.30441e-08 -9.96487e-09)
(0.012203 -1.27159e-08 9.29269e-09)
(0.0122032 1.11929e-08 -8.22311e-09)
(0.0122029 -9.20385e-09 7.40055e-09)
(0.0122035 4.8312e-09 -2.48101e-09)
(0.0122032 -2.97728e-09 2.17044e-09)
(0.0122034 2.03235e-09 -8.11743e-10)
(0.0122034 -2.4083e-09 1.48117e-09)
(0.0122034 1.75396e-09 -9.40444e-10)
(0.0166939 0.0001212 -0.0001212)
(0.0267839 1.1808e-05 -1.1808e-05)
(0.0228581 -4.48777e-06 4.48716e-06)
(0.0243799 1.71256e-06 -1.71184e-06)
(0.0237905 -6.63492e-07 6.63126e-07)
(0.0240187 2.56561e-07 -2.56572e-07)
(0.0239304 -9.92994e-08 9.90623e-08)
(0.0239643 3.9157e-08 -3.99567e-08)
(0.0239515 -1.78264e-08 1.68881e-08)
(0.0239557 8.98949e-09 -1.54729e-08)
(0.0239542 -8.03875e-09 1.22979e-08)
(0.0239545 6.96455e-09 -1.50217e-08)
(0.0239543 -7.07817e-09 1.40692e-08)
(0.0239546 6.02356e-09 -1.23811e-08)
(0.0239542 -4.55983e-09 1.14088e-08)
(0.023955 3.83006e-09 -4.14866e-09)
(0.0239546 -1.83675e-09 3.8167e-09)
(0.0239549 1.35334e-09 -1.56883e-09)
(0.0239549 -6.541e-10 2.0147e-09)
(0.0239549 1.01573e-09 -1.48914e-09)
(0.0191059 1.87933e-10 -0.000128588)
(0.0306632 3.35007e-11 -1.2934e-05)
(0.0261757 -4.06764e-10 4.9111e-06)
(0.0279133 4.92538e-10 -1.86956e-06)
(0.0272403 -2.75104e-10 7.23518e-07)
(0.0275009 3.11891e-11 -2.79754e-07)
(0.0274 -2.00734e-10 1.07842e-07)
(0.0274388 -4.92446e-10 -4.37598e-08)
(0.0274241 -6.45166e-10 1.8636e-08)
(0.027429 -3.7891e-09 -1.87463e-08)
(0.0274272 2.29533e-09 1.53887e-08)
(0.0274276 -4.64589e-09 -1.88223e-08)
(0.0274273 3.95828e-09 1.78306e-08)
(0.0274277 -3.60459e-09 -1.56199e-08)
(0.0274272 3.96816e-09 1.45275e-08)
(0.0274281 -1.3745e-10 -5.1765e-09)
(0.0274277 1.28917e-09 4.7812e-09)
(0.027428 -1.63427e-10 -2.09886e-09)
(0.027428 8.79614e-10 2.825e-09)
(0.027428 -4.13417e-10 -1.9712e-09)
(0.0166939 -0.0001212 -0.0001212)
(0.0267839 -1.18089e-05 -1.1809e-05)
(0.0228581 4.48715e-06 4.48718e-06)
(0.0243799 -1.71178e-06 -1.7118e-06)
(0.0237905 6.63463e-07 6.6348e-07)
(0.0240187 -2.56991e-07 -2.56998e-07)
(0.0239304 9.92886e-08 9.92888e-08)
(0.0239643 -4.01353e-08 -4.01312e-08)
(0.0239515 1.73143e-08 1.72893e-08)
(0.0239557 -1.55942e-08 -1.56699e-08)
(0.0239542 1.2426e-08 1.25997e-08)
(0.0239545 -1.49223e-08 -1.50226e-08)
(0.0239543 1.39897e-08 1.42394e-08)
(0.0239546 -1.23759e-08 -1.24607e-08)
(0.0239542 1.14616e-08 1.16967e-08)
(0.023955 -4.6233e-09 -4.56063e-09)
(0.0239546 4.28683e-09 4.20849e-09)
(0.0239549 -2.0976e-09 -2.08769e-09)
(0.0239549 2.15047e-09 2.13671e-09)
(0.0239549 -1.66463e-09 -1.57179e-09)
(0.00851683 -7.99188e-05 -7.80007e-05)
(0.0136511 -1.27614e-05 -6.86183e-06)
(0.0116399 4.9337e-06 2.61715e-06)
(0.0124218 -1.8988e-06 -1.00239e-06)
(0.012119 7.30734e-07 3.87038e-07)
(0.0122362 -2.81041e-07 -1.49387e-07)
(0.0121909 1.07735e-07 5.7473e-08)
(0.0122082 -4.3039e-08 -2.31092e-08)
(0.0122017 1.84299e-08 9.69483e-09)
(0.0122038 -1.60761e-08 -8.95852e-09)
(0.012203 1.42201e-08 7.40575e-09)
(0.0122031 -1.57442e-08 -8.66441e-09)
(0.012203 1.51457e-08 8.2288e-09)
(0.0122032 -1.31429e-08 -7.15278e-09)
(0.0122029 1.10738e-08 6.44184e-09)
(0.0122035 -4.29506e-09 -2.25682e-09)
(0.0122032 2.63534e-09 1.8331e-09)
(0.0122034 -9.92411e-10 -7.23305e-10)
(0.0122034 2.48288e-09 1.31812e-09)
(0.0122034 -1.85061e-09 -9.07655e-10)
(0.00477169 5.58191e-05 -5.5819e-05)
(0.00764123 7.20376e-06 -7.20349e-06)
(0.00650982 -2.79349e-06 2.79334e-06)
(0.00695025 1.07946e-06 -1.07926e-06)
(0.00677972 -4.17464e-07 4.17264e-07)
(0.00684571 1.61318e-07 -1.61294e-07)
(0.00682021 -6.24994e-08 6.22987e-08)
(0.00682996 2.45578e-08 -2.47362e-08)
(0.00682631 -1.07004e-08 1.04169e-08)
(0.00682741 5.5108e-09 -7.27381e-09)
(0.00682704 -4.34291e-09 5.64427e-09)
(0.00682708 3.69214e-09 -6.01172e-09)
(0.00682701 -3.55109e-09 5.62885e-09)
(0.00682714 3.15207e-09 -4.93851e-09)
(0.00682696 -2.35463e-09 4.23752e-09)
(0.0068273 1.88176e-09 -1.90912e-09)
(0.00682714 -1.03671e-09 1.39806e-09)
(0.00682726 8.42395e-10 -6.91356e-10)
(0.00682724 -5.77546e-10 8.93117e-10)
(0.00682727 5.40167e-10 -6.85823e-10)
(0.00851683 7.80013e-05 -7.99179e-05)
(0.0136511 6.86204e-06 -1.27624e-05)
(0.0116399 -2.6176e-06 4.93321e-06)
(0.0124218 1.0029e-06 -1.89823e-06)
(0.012119 -3.87353e-07 7.30916e-07)
(0.0122362 1.49373e-07 -2.81522e-07)
(0.0121909 -5.76795e-08 1.08038e-07)
(0.0122082 2.26903e-08 -4.34723e-08)
(0.0122017 -1.01984e-08 1.87031e-08)
(0.0122038 5.6682e-09 -1.75669e-08)
(0.012203 -5.15996e-09 1.51322e-08)
(0.0122031 4.56116e-09 -1.71408e-08)
(0.012203 -4.56781e-09 1.63627e-08)
(0.0122032 3.95586e-09 -1.43739e-08)
(0.0122029 -2.91431e-09 1.25701e-08)
(0.0122035 2.12169e-09 -4.95995e-09)
(0.0122032 -8.85226e-10 3.7479e-09)
(0.0122034 6.75529e-10 -1.90746e-09)
(0.0122034 -6.40824e-10 2.98592e-09)
(0.0122034 6.54483e-10 -1.99983e-09)
(0.0095419 4.38113e-10 -7.77864e-05)
(0.0152987 -1.31769e-11 -1.38323e-05)
(0.0130481 -4.08582e-10 5.34849e-06)
(0.0139225 4.54232e-10 -2.05682e-06)
(0.0135839 -1.87172e-10 7.90847e-07)
(0.013715 -6.14193e-11 -3.03943e-07)
(0.0136643 -5.36159e-11 1.1631e-07)
(0.0136837 -3.28382e-10 -4.66644e-08)
(0.0136764 -3.02664e-10 2.00162e-08)
(0.0136787 -2.13139e-09 -1.87512e-08)
(0.0136779 1.33092e-09 1.66833e-08)
(0.013678 -2.5187e-09 -1.87824e-08)
(0.0136779 2.19885e-09 1.80867e-08)
(0.0136781 -1.97796e-09 -1.57034e-08)
(0.0136778 2.23739e-09 1.34543e-08)
(0.0136784 -1.65589e-10 -5.07581e-09)
(0.0136781 8.00835e-10 3.36193e-09)
(0.0136783 -2.22592e-10 -1.39386e-09)
(0.0136783 5.00995e-10 3.11029e-09)
(0.0136783 -1.87307e-10 -2.2223e-09)
(0.00851683 -7.80007e-05 -7.99189e-05)
(0.0136511 -6.86182e-06 -1.27614e-05)
(0.0116399 2.61714e-06 4.9337e-06)
(0.0124218 -1.00238e-06 -1.8988e-06)
(0.012119 3.87029e-07 7.30735e-07)
(0.0122362 -1.49379e-07 -2.81045e-07)
(0.0121909 5.74691e-08 1.07738e-07)
(0.0122082 -2.31092e-08 -4.304e-08)
(0.0122017 9.70108e-09 1.84253e-08)
(0.0122038 -8.96482e-09 -1.6048e-08)
(0.012203 7.39643e-09 1.41765e-08)
(0.0122031 -8.66869e-09 -1.57084e-08)
(0.012203 8.19736e-09 1.51012e-08)
(0.0122032 -7.15902e-09 -1.31092e-08)
(0.0122029 6.40721e-09 1.10375e-08)
(0.0122035 -2.27685e-09 -4.28802e-09)
(0.0122032 1.85721e-09 2.63164e-09)
(0.0122034 -7.24325e-10 -9.90414e-10)
(0.0122034 1.31991e-09 2.48423e-09)
(0.0122034 -9.34118e-10 -1.8516e-09)
(0.00477169 -5.5819e-05 -5.5819e-05)
(0.00764123 -7.20349e-06 -7.20349e-06)
(0.00650981 2.79342e-06 2.79342e-06)
(0.00695025 -1.07936e-06 -1.07936e-06)
(0.00677972 4.17306e-07 4.17305e-07)
(0.00684571 -1.61261e-07 -1.61262e-07)
(0.00682021 6.23337e-08 6.23355e-08)
(0.00682996 -2.46531e-08 -2.4654e-08)
(0.00682631 1.04899e-08 1.0487e-08)
(0.00682741 -6.70343e-09 -6.68147e-09)
(0.00682704 5.26614e-09 5.22837e-09)
(0.00682708 -5.3044e-09 -5.27602e-09)
(0.00682701 5.01385e-09 4.97203e-09)
(0.00682714 -4.39041e-09 -4.36399e-09)
(0.00682696 3.64516e-09 3.60942e-09)
(0.0068273 -1.86099e-09 -1.85853e-09)
(0.00682714 1.21325e-09 1.21412e-09)
(0.00682726 -6.67132e-10 -6.65443e-10)
(0.00682724 7.65561e-10 7.66863e-10)
(0.00682727 -6.37452e-10 -6.42657e-10)
)
;

boundaryField
{
    inlet
    {
        type            fixedValue;
        value           uniform (0.01667 0 0);
    }
    outlet
    {
        type            zeroGradient;
    }
    Walls
    {
        type            noSlip;
    }
}


// ************************************************************************* //
