/*--------------------------------*- C++ -*----------------------------------*\
  =========                 |
  \\      /  F ield         | OpenFOAM: The Open Source CFD Toolbox
   \\    /   O peration     | Website:  https://openfoam.org
    \\  /    A nd           | Version:  13
     \\/     M anipulation  |
\*---------------------------------------------------------------------------*/
FoamFile
{
    format      ascii;
    class       surfaceScalarField;
    location    "29";
    object      phi;
}
// * * * * * * * * * * * * * * * * * * * * * * * * * * * * * * * * * * * * * //

dimensions      [0 3 -1 0 0 0 0];

internalField   nonuniform List<scalar> 
10260
(
2.83698e-12
6.91651e-12
6.9165e-12
2.15973e-12
3.38632e-13
3.38633e-13
2.52778e-12
-1.84024e-13
-1.84022e-13
2.32476e-12
1.01503e-13
1.01501e-13
2.44077e-12
-5.79897e-14
-5.79879e-14
2.37473e-12
3.30745e-14
3.30707e-14
2.41195e-12
-1.87386e-14
-1.87344e-14
2.39149e-12
1.03057e-14
1.03032e-14
2.40239e-12
-5.46818e-15
-5.46682e-15
2.39681e-12
2.78476e-15
2.78418e-15
2.39955e-12
-1.35735e-15
-1.35666e-15
2.39828e-12
6.34653e-16
6.33459e-16
2.39886e-12
-2.89588e-16
-2.893e-16
2.39857e-12
1.36421e-16
1.37284e-16
2.39874e-12
-8.07294e-17
-8.19241e-17
2.39861e-12
5.67313e-17
5.71615e-17
2.39871e-12
-4.45855e-17
-4.49095e-17
2.39864e-12
3.21676e-17
3.24042e-17
2.39869e-12
-2.43175e-17
-2.45334e-17
2.39865e-12
2.02499e-17
2.04358e-17
2.39868e-12
-1.63741e-17
-1.64771e-17
2.39867e-12
4.98996e-18
5.26329e-18
2.39868e-12
-5.29687e-18
-5.38569e-18
2.39868e-12
-1.93759e-18
-1.86119e-18
2.39866e-12
8.60045e-18
8.48605e-18
2.39869e-12
-1.19402e-17
-1.18573e-17
2.39866e-12
1.11799e-17
1.11875e-17
2.39871e-12
-2.62777e-17
-2.61336e-17
2.39867e-12
1.81723e-17
1.82184e-17
2.39874e-12
-3.58583e-17
-3.57264e-17
2.39866e-12
3.83046e-17
3.81909e-17
2.3988e-12
-5.98333e-17
-5.99729e-17
2.39864e-12
8.02862e-17
8.02527e-17
2.39878e-12
-6.56722e-17
-6.59364e-17
2.39862e-12
7.87573e-17
7.88334e-17
2.39878e-12
-6.22836e-17
-6.26632e-17
9.00526e-17
8.92306e-17
5.36619e-12
7.3681e-12
1.08522e-11
4.66937e-12
4.38757e-13
5.96717e-13
5.03501e-12
-2.35169e-13
-3.14473e-13
4.83976e-12
1.26816e-13
1.69884e-13
4.95161e-12
-7.27173e-14
-9.70246e-14
4.88799e-12
4.18471e-14
5.51498e-14
4.92369e-12
-2.41628e-14
-3.1026e-14
4.9042e-12
1.34052e-14
1.68378e-14
4.91451e-12
-7.12597e-15
-8.74951e-15
4.90929e-12
3.62628e-15
4.33095e-15
4.91181e-12
-1.77256e-15
-2.03015e-15
4.91068e-12
8.52905e-16
9.08694e-16
4.91119e-12
-3.82476e-16
-4.01473e-16
4.91092e-12
1.51112e-16
1.98827e-16
4.91108e-12
-8.72025e-17
-1.3489e-16
4.91096e-12
5.65763e-17
1.00043e-16
4.91105e-12
-4.79525e-17
-8.25448e-17
4.91098e-12
2.85851e-17
6.30154e-17
4.91104e-12
-1.99074e-17
-4.92621e-17
4.911e-12
2.20614e-17
4.46088e-17
4.91103e-12
-2.02166e-17
-3.91351e-17
4.91101e-12
-1.07505e-17
1.90058e-17
4.91102e-12
2.71537e-18
-2.1886e-17
4.91103e-12
-1.16567e-17
6.99767e-18
4.91101e-12
2.02649e-17
6.42271e-18
4.91104e-12
-2.02124e-17
-1.47951e-17
4.91101e-12
1.14371e-17
1.39637e-17
4.91106e-12
-4.8257e-17
-4.57988e-17
4.91103e-12
2.12193e-17
3.03634e-17
4.9111e-12
-5.04224e-17
-7.11821e-17
4.91102e-12
3.89263e-17
7.65191e-17
4.91118e-12
-4.38757e-17
-1.27647e-16
4.911e-12
8.49149e-17
1.74752e-16
4.91115e-12
-3.26615e-17
-1.48599e-16
4.91098e-12
6.78038e-17
1.79408e-16
4.91115e-12
-1.81669e-18
-1.49896e-16
7.31496e-17
2.01569e-16
6.77481e-12
5.64631e-12
1.1617e-11
6.17775e-12
3.59061e-13
6.76778e-13
6.48842e-12
-1.91513e-13
-3.54305e-13
6.32535e-12
1.01154e-13
1.88676e-13
6.41885e-12
-5.82276e-14
-1.07878e-13
6.36583e-12
3.37254e-14
6.14297e-14
6.39528e-12
-1.97075e-14
-3.4651e-14
6.3794e-12
1.09965e-14
1.87369e-14
6.38771e-12
-5.85854e-15
-9.66992e-15
6.38358e-12
2.97665e-15
4.72942e-15
6.38553e-12
-1.45543e-15
-2.19285e-15
6.38469e-12
7.13811e-16
9.70559e-16
6.38506e-12
-3.10317e-16
-4.26135e-16
6.38484e-12
1.12123e-16
2.00649e-16
6.38498e-12
-6.31452e-17
-1.41627e-16
6.38486e-12
3.47432e-17
1.115e-16
6.38495e-12
-3.196e-17
-9.46289e-17
6.38489e-12
1.48425e-17
6.98547e-17
6.38494e-12
-7.70965e-18
-5.56557e-17
6.38491e-12
1.3894e-17
5.17972e-17
6.38493e-12
-1.42638e-17
-4.67482e-17
6.38491e-12
-2.23214e-17
2.08899e-17
6.38492e-12
9.33938e-18
-2.52006e-17
6.38493e-12
-1.77256e-17
8.97371e-18
6.38491e-12
2.4566e-17
7.80223e-18
6.38494e-12
-2.20033e-17
-1.67566e-17
6.38491e-12
7.86358e-18
1.61776e-17
6.38495e-12
-5.33682e-17
-5.23695e-17
6.38492e-12
1.56586e-17
3.50306e-17
6.38498e-12
-5.13653e-17
-7.61357e-17
6.38491e-12
2.57346e-17
8.86518e-17
6.38507e-12
-2.51241e-17
-1.34701e-16
6.38489e-12
7.19281e-17
1.88981e-16
6.38506e-12
2.8932e-18
-1.64501e-16
6.38488e-12
3.99579e-17
2.01943e-16
6.38507e-12
4.09899e-17
-1.52765e-16
4.14093e-17
2.17444e-16
7.58086e-12
3.00354e-12
1.17319e-11
7.05082e-12
1.95667e-13
6.93457e-13
7.32954e-12
-1.04458e-13
-3.6575e-13
7.18319e-12
5.43919e-14
1.9306e-13
7.26704e-12
-3.13809e-14
-1.10588e-13
7.21963e-12
1.8278e-14
6.31321e-14
7.24572e-12
-1.07495e-14
-3.57861e-14
7.23177e-12
6.00016e-15
1.93918e-14
7.23903e-12
-3.20692e-15
-1.00078e-14
7.23545e-12
1.61538e-15
4.88922e-15
7.23714e-12
-7.97863e-16
-2.25921e-15
7.23643e-12
4.1012e-16
9.97252e-16
7.23674e-12
-1.70805e-16
-4.33052e-16
7.23654e-12
6.29744e-17
1.9377e-16
7.23667e-12
-3.37654e-17
-1.38696e-16
7.23656e-12
8.84598e-18
1.11412e-16
7.23664e-12
-9.79905e-18
-9.65216e-17
7.23658e-12
1.04107e-18
6.888e-17
7.23663e-12
2.79543e-18
-5.39076e-17
7.2366e-12
4.35462e-18
5.15642e-17
7.23662e-12
-6.54078e-18
-4.66562e-17
7.2366e-12
-2.0894e-17
1.40373e-17
7.23661e-12
8.32142e-18
-2.09033e-17
7.23661e-12
-1.35638e-17
3.40479e-18
7.2366e-12
1.7362e-17
1.41571e-17
7.23662e-12
-1.47843e-17
-2.18894e-17
7.23659e-12
3.53693e-18
1.70802e-17
7.23663e-12
-3.93121e-17
-6.11743e-17
7.2366e-12
1.04724e-17
3.37945e-17
7.23665e-12
-4.05847e-17
-7.93382e-17
7.23657e-12
1.79272e-17
8.36847e-17
7.23673e-12
-1.40883e-17
-1.2872e-16
7.23656e-12
5.19583e-17
1.88589e-16
7.23675e-12
9.25281e-18
-1.47782e-16
7.23657e-12
2.36836e-17
1.92976e-16
7.23677e-12
3.76455e-17
-1.26137e-16
1.56744e-17
2.09112e-16
7.9521e-12
3.38708e-17
1.17214e-11
7.45574e-12
-1.9982e-17
6.92077e-13
7.71953e-12
-5.01193e-17
-3.68156e-13
7.58032e-12
5.06449e-17
1.93487e-13
7.66e-12
-3.40585e-17
-1.10909e-13
7.61503e-12
1.7376e-16
6.3328e-14
7.63964e-12
-1.23082e-16
-3.5973e-14
7.62653e-12
2.48225e-17
1.95287e-14
7.63335e-12
-3.63783e-17
-1.00758e-14
7.63e-12
-1.97576e-17
4.93294e-15
7.63158e-12
-1.29131e-17
-2.27374e-15
7.63092e-12
3.8009e-17
1.00842e-15
7.63121e-12
-7.00736e-18
-4.34517e-16
7.63102e-12
8.54428e-18
1.93289e-16
7.63114e-12
-1.86649e-19
-1.40362e-16
7.63103e-12
-1.50467e-17
1.08668e-16
7.63111e-12
1.21486e-17
-9.49568e-17
7.63105e-12
-1.083e-17
6.73712e-17
7.6311e-12
9.92608e-18
-5.1465e-17
7.63107e-12
-5.84193e-18
5.20226e-17
7.63109e-12
3.14683e-18
-4.80369e-17
7.63106e-12
-1.05374e-17
9.59891e-18
7.63108e-12
4.82518e-18
-2.05187e-17
7.63108e-12
-4.477e-18
1.46189e-18
7.63107e-12
5.51197e-18
1.5403e-17
7.63109e-12
-4.57508e-18
-2.2227e-17
7.63106e-12
4.22393e-18
1.19252e-17
7.63109e-12
-1.04071e-17
-6.92043e-17
7.63106e-12
8.79893e-18
2.97318e-17
7.63111e-12
-1.43505e-17
-8.88485e-17
7.63103e-12
1.57608e-17
7.76073e-17
7.63119e-12
3.64937e-19
-1.31933e-16
7.63102e-12
1.15639e-17
2.02863e-16
7.63122e-12
-2.50035e-18
-1.36034e-16
7.63103e-12
7.71399e-18
1.92984e-16
7.63125e-12
1.29492e-17
-1.15943e-16
-2.15314e-17
2.19602e-16
7.9521e-12
-3.0035e-12
1.17214e-11
7.45574e-12
-1.95704e-13
6.92079e-13
7.71953e-12
1.04368e-13
-3.68158e-13
7.58032e-12
-5.43024e-14
1.93489e-13
7.66e-12
3.13225e-14
-1.10909e-13
7.61503e-12
-1.79502e-14
6.33264e-14
7.63964e-12
1.04928e-14
-3.59641e-14
7.62653e-12
-5.93279e-15
1.95204e-14
7.63335e-12
3.13546e-15
-1.0075e-14
7.63e-12
-1.65215e-15
4.93245e-15
7.63158e-12
7.77471e-16
-2.27444e-15
7.63092e-12
-3.39685e-16
1.00753e-15
7.63121e-12
1.58427e-16
-4.34632e-16
7.63102e-12
-4.86069e-17
1.9336e-16
7.63114e-12
3.3118e-17
-1.39866e-16
7.63103e-12
-3.77272e-17
1.09143e-16
7.63111e-12
3.26043e-17
-9.5046e-17
7.63105e-12
-2.12837e-17
6.73261e-17
7.6311e-12
1.58673e-17
-5.14967e-17
7.63107e-12
-1.43349e-17
5.15863e-17
7.63109e-12
1.11225e-17
-4.73723e-17
7.63106e-12
9.94264e-19
9.93623e-18
7.63108e-12
-7.01462e-20
-1.99453e-17
7.63108e-12
5.74524e-18
1.18191e-18
7.63107e-12
-7.69642e-18
1.5796e-17
7.63109e-12
7.04118e-18
-2.27063e-17
7.63106e-12
2.4688e-18
1.33112e-17
7.63109e-12
1.88325e-17
-6.80916e-17
7.63106e-12
4.68635e-18
3.08877e-17
7.63111e-12
1.25637e-17
-8.73582e-17
7.63103e-12
9.72994e-18
7.92431e-17
7.63119e-12
1.6115e-17
-1.3198e-16
7.63102e-12
-2.86507e-17
2.0041e-16
7.63122e-12
-1.05642e-17
-1.38364e-16
7.63103e-12
-9.30123e-18
1.92641e-16
7.63125e-12
-1.00643e-17
-1.17666e-16
-5.45363e-17
2.17778e-16
7.58086e-12
-5.64631e-12
1.17319e-11
7.05082e-12
-3.59089e-13
6.9346e-13
7.32954e-12
1.91451e-13
-3.65753e-13
7.18319e-12
-1.01095e-13
1.93065e-13
7.26704e-12
5.81961e-14
-1.1059e-13
7.21964e-12
-3.34463e-14
6.31161e-14
7.24572e-12
1.9425e-14
-3.57556e-14
7.23177e-12
-1.08874e-14
1.93708e-14
7.23904e-12
5.7905e-15
-1.00037e-14
7.23545e-12
-3.00707e-15
4.88976e-15
7.23714e-12
1.44829e-15
-2.25989e-15
7.23643e-12
-6.60477e-16
9.95828e-16
7.23674e-12
3.02115e-16
-4.3305e-16
7.23654e-12
-1.0695e-16
1.94678e-16
7.23667e-12
6.40503e-17
-1.38404e-16
7.23656e-12
-5.89507e-17
1.11929e-16
7.23664e-12
4.97709e-17
-9.62056e-17
7.23658e-12
-3.08057e-17
6.86972e-17
7.23663e-12
2.24929e-17
-5.36666e-17
7.2366e-12
-1.96342e-17
5.07801e-17
7.23662e-12
1.4966e-17
-4.5512e-17
7.2366e-12
6.49591e-18
1.44279e-17
7.23661e-12
-4.39893e-18
-1.98923e-17
7.23661e-12
1.30194e-17
2.67034e-18
7.2366e-12
-1.84062e-17
1.49565e-17
7.23662e-12
1.78004e-17
-2.2896e-17
7.23659e-12
-6.73084e-18
1.91495e-17
7.23663e-12
3.635e-17
-6.02696e-17
7.2366e-12
-6.27559e-18
3.58923e-17
7.23665e-12
2.94878e-17
-7.90843e-17
7.23657e-12
-7.87585e-18
8.70944e-17
7.23673e-12
3.30203e-17
-1.31599e-16
7.23656e-12
-5.47537e-17
1.88243e-16
7.23675e-12
4.2298e-18
-1.52959e-16
7.23657e-12
-3.08183e-17
1.94308e-16
7.23677e-12
-9.3474e-18
-1.31393e-16
-7.20666e-17
2.09312e-16
6.77481e-12
-7.36809e-12
1.16169e-11
6.17774e-12
-4.38769e-13
6.76779e-13
6.48842e-12
2.35142e-13
-3.54305e-13
6.32536e-12
-1.26798e-13
1.8868e-13
6.41885e-12
7.27242e-14
-1.07881e-13
6.36584e-12
-4.16324e-14
6.13943e-14
6.39528e-12
2.38565e-14
-3.46039e-14
6.3794e-12
-1.3255e-14
1.87147e-14
6.38771e-12
7.06673e-15
-9.66466e-15
6.38357e-12
-3.65135e-15
4.73451e-15
6.38553e-12
1.78219e-15
-2.19262e-15
6.38469e-12
-8.27286e-16
9.70986e-16
6.38506e-12
3.80119e-16
-4.26115e-16
6.38484e-12
-1.58776e-16
2.04728e-16
6.38498e-12
9.19157e-17
-1.45291e-16
6.38486e-12
-7.30413e-17
1.11972e-16
6.38495e-12
5.84797e-17
-9.45139e-17
6.38489e-12
-3.89541e-17
7.0583e-17
6.38494e-12
2.88631e-17
-5.53951e-17
6.38491e-12
-2.33946e-17
5.21666e-17
6.38493e-12
1.75459e-17
-4.69273e-17
6.38491e-12
1.38689e-18
2.12327e-17
6.38492e-12
-5.89892e-19
-2.56491e-17
6.38493e-12
1.02972e-17
8.9879e-18
6.38491e-12
-1.75505e-17
7.38766e-18
6.38494e-12
1.92931e-17
-1.65591e-17
6.38491e-12
-1.2585e-17
1.47204e-17
6.38495e-12
3.86253e-17
-5.29882e-17
6.38492e-12
-1.60419e-17
3.384e-17
6.38498e-12
4.04609e-17
-7.82602e-17
6.38491e-12
-2.91009e-17
8.72753e-17
6.38507e-12
5.9275e-17
-1.38829e-16
6.38489e-12
-8.29611e-17
1.94745e-16
6.38506e-12
4.45308e-17
-1.65591e-16
6.38488e-12
-6.6795e-17
2.04551e-16
6.38507e-12
3.52402e-17
-1.58138e-16
-9.92248e-17
2.23629e-16
5.36619e-12
-6.9165e-12
1.08522e-11
4.66937e-12
-3.38625e-13
5.96718e-13
5.03501e-12
1.8403e-13
-3.14465e-13
4.83976e-12
-1.01516e-13
1.69873e-13
4.95161e-12
5.80184e-14
-9.70061e-14
4.888e-12
-3.29846e-14
5.51608e-14
4.9237e-12
1.85003e-14
-3.10685e-14
4.9042e-12
-1.01605e-14
1.68618e-14
4.91452e-12
5.43717e-15
-8.75907e-15
4.90929e-12
-2.79695e-15
4.32844e-15
4.91182e-12
1.38051e-15
-2.02278e-15
4.91068e-12
-6.36916e-16
9.03727e-16
4.91119e-12
2.93048e-16
-4.00336e-16
4.91092e-12
-1.5253e-16
1.93275e-16
4.91108e-12
8.71068e-17
-1.32743e-16
4.91096e-12
-6.38568e-17
1.00503e-16
4.91105e-12
4.73961e-17
-8.33694e-17
4.91098e-12
-3.53269e-17
6.33305e-17
4.91104e-12
2.68546e-17
-4.93899e-17
4.911e-12
-1.7151e-17
4.57861e-17
4.91103e-12
1.06071e-17
-4.02374e-17
4.91101e-12
-7.33531e-18
2.00497e-17
4.91102e-12
3.56937e-18
-2.18818e-17
4.91103e-12
3.70227e-18
7.78682e-18
4.91101e-12
-9.82154e-18
5.91724e-18
4.91104e-12
1.42844e-17
-1.40923e-17
4.91101e-12
-1.6885e-17
1.41168e-17
4.91106e-12
2.1795e-17
-4.30389e-17
4.91103e-12
-2.00418e-17
3.09892e-17
4.9111e-12
3.2685e-17
-6.62816e-17
4.91102e-12
-4.02948e-17
7.71888e-17
4.91117e-12
7.28915e-17
-1.21429e-16
4.91099e-12
-8.10986e-17
1.66514e-16
4.91115e-12
8.05025e-17
-1.4747e-16
4.91098e-12
-8.09079e-17
1.76378e-16
4.91115e-12
8.72707e-17
-1.45651e-16
-9.514e-17
1.96467e-16
2.83698e-12
6.9165e-12
2.15973e-12
3.38641e-13
2.52778e-12
-1.8401e-13
2.32476e-12
1.01485e-13
2.44077e-12
-5.79647e-14
2.37473e-12
3.30904e-14
2.41195e-12
-1.88555e-14
2.39149e-12
1.03866e-14
2.40239e-12
-5.48054e-15
2.39681e-12
2.78288e-15
2.39955e-12
-1.34122e-15
2.39828e-12
6.25622e-16
2.39886e-12
-2.86434e-16
2.39857e-12
1.25167e-16
2.39874e-12
-7.64767e-17
2.39861e-12
5.57798e-17
2.39871e-12
-4.55963e-17
2.39864e-12
3.25456e-17
2.39869e-12
-2.46953e-17
2.39865e-12
2.31535e-17
2.39868e-12
-2.04292e-17
2.39867e-12
5.97571e-18
2.39868e-12
-7.28731e-18
2.39868e-12
1.09144e-19
2.39866e-12
6.68549e-18
2.39869e-12
-9.6069e-18
2.39866e-12
6.68454e-18
2.39871e-12
-2.65586e-17
2.39867e-12
1.51211e-17
2.39874e-12
-3.42503e-17
2.39866e-12
3.37659e-17
2.3988e-12
-5.22097e-17
2.39864e-12
7.71604e-17
2.39878e-12
-5.65624e-17
2.39862e-12
7.60494e-17
2.39878e-12
-5.0285e-17
9.15123e-17
5.36619e-12
1.08522e-11
7.3681e-12
4.66937e-12
5.96716e-13
4.38759e-13
5.03501e-12
-3.14477e-13
-2.35164e-13
4.83976e-12
1.69888e-13
1.26811e-13
4.95161e-12
-9.70298e-14
-7.27103e-14
4.88799e-12
5.51617e-14
4.18336e-14
4.92369e-12
-3.10314e-14
-2.41569e-14
4.9042e-12
1.68415e-14
1.34014e-14
4.91451e-12
-8.753e-15
-7.12176e-15
4.90929e-12
4.33095e-15
3.62548e-15
4.91181e-12
-2.03276e-15
-1.76913e-15
4.91068e-12
9.12306e-16
8.48318e-16
4.91119e-12
-4.02464e-16
-3.81218e-16
4.91092e-12
1.97882e-16
1.51595e-16
4.91108e-12
-1.32866e-16
-8.91759e-17
4.91096e-12
9.90577e-17
5.78193e-17
4.91105e-12
-8.16615e-17
-4.90236e-17
4.91098e-12
6.23459e-17
2.93828e-17
4.91104e-12
-4.87678e-17
-2.05455e-17
4.911e-12
4.40167e-17
2.2837e-17
4.91103e-12
-3.86736e-17
-2.08297e-17
4.91101e-12
1.81648e-17
-9.75398e-18
4.91102e-12
-2.15113e-17
2.26218e-18
4.91103e-12
6.639e-18
-1.12348e-17
4.91101e-12
6.81467e-18
1.97828e-17
4.91104e-12
-1.51194e-17
-1.98003e-17
4.91101e-12
1.43699e-17
1.10066e-17
4.91106e-12
-4.62633e-17
-4.77611e-17
4.91103e-12
3.07242e-17
2.09259e-17
4.9111e-12
-7.22428e-17
-4.94369e-17
4.91102e-12
7.76726e-17
3.77756e-17
4.91118e-12
-1.27709e-16
-4.37948e-17
4.911e-12
1.75351e-16
8.43687e-17
4.91115e-12
-1.48568e-16
-3.27747e-17
4.91098e-12
1.79386e-16
6.78836e-17
4.91115e-12
-1.49313e-16
-2.40095e-18
2.02403e-16
7.24322e-17
1.15727e-11
1.34008e-11
1.34008e-11
1.10153e-11
8.75416e-13
8.75422e-13
1.12828e-11
-4.48202e-13
-4.4819e-13
1.11537e-11
2.34394e-13
2.34381e-13
1.12293e-11
-1.34678e-13
-1.34663e-13
1.11854e-11
7.74943e-14
7.74636e-14
1.12109e-11
-4.47989e-14
-4.47927e-14
1.11959e-11
2.49367e-14
2.49314e-14
1.12048e-11
-1.33111e-14
-1.33028e-14
1.11997e-11
6.83396e-15
6.83495e-15
1.12025e-11
-3.37202e-15
-3.36406e-15
1.1201e-11
1.65304e-15
1.64257e-15
1.12018e-11
-7.44036e-16
-7.41079e-16
1.12014e-11
2.99797e-16
3.00028e-16
1.12015e-11
-1.71889e-16
-1.75607e-16
1.12015e-11
9.71416e-17
1.00113e-16
1.12015e-11
-8.0505e-17
-8.33474e-17
1.12015e-11
4.79558e-17
5.00152e-17
1.12015e-11
-3.09806e-17
-3.24452e-17
1.12015e-11
3.96871e-17
4.16177e-17
1.12015e-11
-3.69517e-17
-3.84703e-17
1.12015e-11
-2.62527e-17
-2.36467e-17
1.12015e-11
5.59341e-18
4.35814e-18
1.12015e-11
-2.37592e-17
-2.24846e-17
1.12015e-11
3.70804e-17
3.57712e-17
1.12015e-11
-3.54575e-17
-3.43151e-17
1.12015e-11
1.44194e-17
1.30323e-17
1.12016e-11
-9.65275e-17
-9.48904e-17
1.12015e-11
3.48531e-17
3.35956e-17
1.12016e-11
-1.05429e-16
-1.01458e-16
1.12016e-11
6.35906e-17
5.98309e-17
1.12016e-11
-8.1502e-17
-8.04696e-17
1.12016e-11
1.70252e-16
1.67315e-16
1.12015e-11
-4.23541e-17
-4.17088e-17
1.12016e-11
1.20574e-16
1.19877e-16
1.12015e-11
5.99002e-18
5.37895e-18
1.44888e-16
1.43783e-16
1.53911e-11
1.10407e-11
1.52559e-11
1.51192e-11
7.72614e-13
1.05154e-12
1.52348e-11
-3.87906e-13
-5.30069e-13
1.51899e-11
1.97029e-13
2.70778e-13
1.52172e-11
-1.13657e-13
-1.55961e-13
1.52013e-11
6.57415e-14
8.9904e-14
1.52103e-11
-3.83482e-14
-5.2162e-14
1.52048e-11
2.14162e-14
2.89867e-14
1.52084e-11
-1.14562e-14
-1.54053e-14
1.52061e-11
5.8712e-15
7.86489e-15
1.52075e-11
-2.91253e-15
-3.84581e-15
1.52068e-11
1.45927e-15
1.87057e-15
1.52072e-11
-6.44769e-16
-8.37784e-16
1.52069e-11
2.41551e-16
3.22759e-16
1.5207e-11
-1.33723e-16
-1.92903e-16
1.5207e-11
6.38644e-17
1.13994e-16
1.5207e-11
-5.65645e-17
-9.85521e-17
1.5207e-11
2.61642e-17
5.59686e-17
1.5207e-11
-1.25732e-17
-3.60986e-17
1.5207e-11
2.77031e-17
4.9527e-17
1.5207e-11
-2.89932e-17
-4.70022e-17
1.5207e-11
-4.27533e-17
-3.26605e-17
1.5207e-11
1.44653e-17
6.87038e-18
1.5207e-11
-3.0512e-17
-2.84382e-17
1.5207e-11
4.1775e-17
4.54738e-17
1.5207e-11
-3.63221e-17
-4.24382e-17
1.5207e-11
9.8806e-18
1.46082e-17
1.5207e-11
-1.01746e-16
-1.17426e-16
1.5207e-11
2.97272e-17
3.81722e-17
1.5207e-11
-1.03483e-16
-1.18313e-16
1.5207e-11
5.04745e-17
6.77927e-17
1.52071e-11
-4.90118e-17
-8.38253e-17
1.52071e-11
1.44935e-16
1.91099e-16
1.5207e-11
5.55065e-18
-3.47283e-17
1.52071e-11
8.27872e-17
1.35117e-16
1.52071e-11
6.92137e-17
3.54222e-17
9.18284e-17
1.57403e-16
1.76505e-11
6.08516e-12
1.5707e-11
1.75729e-11
4.39713e-13
1.10396e-12
1.75964e-11
-2.18648e-13
-5.58437e-13
1.75966e-11
1.08964e-13
2.80788e-13
1.75978e-11
-6.30381e-14
-1.62111e-13
1.75971e-11
3.67168e-14
9.3607e-14
1.7597e-11
-2.15411e-14
-5.45136e-14
1.75967e-11
1.19961e-14
3.03174e-14
1.75975e-11
-6.42987e-15
-1.60894e-14
1.75967e-11
3.24566e-15
8.20204e-15
1.75974e-11
-1.63052e-15
-3.99444e-15
1.7597e-11
8.48647e-16
1.94054e-15
1.75972e-11
-3.62666e-16
-8.63439e-16
1.75971e-11
1.32912e-16
3.19054e-16
1.75971e-11
-6.8994e-17
-1.93453e-16
1.75971e-11
1.78871e-17
1.152e-16
1.75971e-11
-1.90602e-17
-1.02431e-16
1.75971e-11
1.60716e-18
5.53148e-17
1.75971e-11
4.97395e-18
-3.42088e-17
1.75971e-11
9.37407e-18
5.14958e-17
1.7597e-11
-1.3516e-17
-4.97257e-17
1.75971e-11
-3.89734e-17
-4.18378e-17
1.7597e-11
1.4548e-17
1.06747e-17
1.75971e-11
-2.364e-17
-3.44431e-17
1.7597e-11
3.10532e-17
5.23992e-17
1.75971e-11
-2.60766e-17
-4.74114e-17
1.7597e-11
8.31998e-18
1.23514e-17
1.7597e-11
-7.1646e-17
-1.32207e-16
1.7597e-11
2.33912e-17
3.58042e-17
1.7597e-11
-7.21055e-17
-1.27321e-16
1.75971e-11
3.92459e-17
6.19972e-17
1.75971e-11
-1.889e-17
-7.9045e-17
1.75971e-11
8.93166e-17
1.99884e-16
1.75971e-11
1.447e-17
-1.24659e-17
1.75972e-11
4.72656e-17
1.30105e-16
1.75972e-11
7.09015e-17
6.97509e-17
2.28896e-17
1.58253e-16
1.87045e-11
3.66032e-17
1.57719e-11
1.87252e-11
-4.75389e-17
1.11127e-12
1.8705e-11
-9.2617e-17
-5.66402e-13
1.87246e-11
9.06541e-17
2.8257e-13
1.87144e-11
-5.5491e-17
-1.63338e-13
1.87203e-11
3.82131e-16
9.43594e-14
1.87162e-11
-3.13437e-16
-5.50566e-14
1.87182e-11
8.84108e-17
3.06414e-14
1.87178e-11
-8.1672e-17
-1.62483e-14
1.87176e-11
-4.63643e-17
8.28498e-15
1.8718e-11
-2.50124e-17
-4.02387e-15
1.87178e-11
7.87604e-17
1.95392e-15
1.87179e-11
-1.55062e-17
-8.67132e-16
1.87177e-11
1.25635e-17
3.14155e-16
1.87178e-11
9.21667e-19
-1.93012e-16
1.87178e-11
-3.28538e-17
1.14969e-16
1.87177e-11
2.48734e-17
-1.03594e-16
1.87177e-11
-2.27315e-17
5.48672e-17
1.87177e-11
2.09815e-17
-3.28035e-17
1.87178e-11
-1.01194e-17
5.28144e-17
1.87177e-11
3.73249e-18
-5.16445e-17
1.87177e-11
-2.31506e-17
-4.58715e-17
1.87177e-11
8.28912e-18
1.14802e-17
1.87177e-11
-8.26279e-18
-3.64665e-17
1.87177e-11
1.01453e-17
5.42581e-17
1.87177e-11
-7.85973e-18
-4.82203e-17
1.87177e-11
5.1195e-18
8.22021e-18
1.87177e-11
-2.37946e-17
-1.38967e-16
1.87177e-11
1.53147e-17
3.19506e-17
1.87177e-11
-2.9319e-17
-1.31891e-16
1.87177e-11
2.72292e-17
5.54992e-17
1.87177e-11
7.41571e-18
-7.74756e-17
1.87178e-11
2.40756e-17
2.06523e-16
1.87178e-11
4.24448e-18
1.09786e-18
1.87178e-11
1.49856e-17
1.27192e-16
1.87179e-11
3.65816e-17
8.52034e-17
-4.49355e-17
1.64559e-16
1.87045e-11
-6.08508e-12
1.57719e-11
1.87252e-11
-4.39797e-13
1.11128e-12
1.8705e-11
2.18477e-13
-5.66395e-13
1.87246e-11
-1.088e-13
2.82564e-13
1.87144e-11
6.2944e-14
-1.6333e-13
1.87203e-11
-3.59875e-14
9.43338e-14
1.87162e-11
2.09022e-14
-5.50396e-14
1.87182e-11
-1.1796e-14
3.06369e-14
1.87178e-11
6.27101e-15
-1.62457e-14
1.87176e-11
-3.33587e-15
8.28817e-15
1.8718e-11
1.59094e-15
-4.02206e-15
1.87178e-11
-7.04758e-16
1.94848e-15
1.87179e-11
3.35399e-16
-8.66748e-16
1.87177e-11
-1.14609e-16
3.12889e-16
1.87178e-11
7.2621e-17
-1.9265e-16
1.87178e-11
-8.04233e-17
1.17079e-16
1.87177e-11
6.58798e-17
-1.05113e-16
1.87177e-11
-4.45228e-17
5.61437e-17
1.87177e-11
3.43716e-17
-3.37819e-17
1.87178e-11
-2.72199e-17
5.33714e-17
1.87177e-11
1.90592e-17
-5.18265e-17
1.87177e-11
-4.34448e-18
-4.42537e-17
1.87177e-11
5.55865e-19
1.12521e-17
1.87177e-11
8.69405e-18
-3.59835e-17
1.87177e-11
-1.24618e-17
5.3702e-17
1.87177e-11
1.20258e-17
-4.78568e-17
1.87177e-11
5.40561e-19
8.22563e-18
1.87177e-11
2.69616e-17
-1.36612e-16
1.87177e-11
5.30355e-18
3.14243e-17
1.87177e-11
1.73926e-17
-1.28404e-16
1.87177e-11
1.17126e-17
5.44019e-17
1.87177e-11
3.62859e-17
-7.68186e-17
1.87178e-11
-4.63062e-17
2.0283e-16
1.87178e-11
-3.81019e-18
2.10774e-19
1.87178e-11
-2.04762e-17
1.25907e-16
1.87179e-11
2.74091e-18
8.26178e-17
-1.08283e-16
1.6596e-16
1.76505e-11
-1.10407e-11
1.5707e-11
1.75729e-11
-7.7267e-13
1.10396e-12
1.75965e-11
3.87779e-13
-5.58418e-13
1.75966e-11
-1.96913e-13
2.80772e-13
1.75978e-11
1.13608e-13
-1.62092e-13
1.75971e-11
-6.51245e-14
9.3531e-14
1.7597e-11
3.7701e-14
-5.44599e-14
1.75967e-11
-2.11645e-14
3.03028e-14
1.75976e-11
1.13145e-14
-1.60811e-14
1.75967e-11
-5.95224e-15
8.21188e-15
1.75974e-11
2.90061e-15
-3.98952e-15
1.7597e-11
-1.35245e-15
1.92603e-15
1.75972e-11
6.27696e-16
-8.62328e-16
1.75971e-11
-2.38738e-16
3.16559e-16
1.75971e-11
1.397e-16
-1.9341e-16
1.75971e-11
-1.17428e-16
1.20878e-16
1.75971e-11
9.53133e-17
-1.06525e-16
1.75971e-11
-6.17851e-17
5.89617e-17
1.75971e-11
4.46471e-17
-3.68624e-17
1.75971e-11
-3.90543e-17
5.31998e-17
1.7597e-11
2.94016e-17
-5.04592e-17
1.75971e-11
7.64715e-18
-3.75143e-17
1.7597e-11
-3.56127e-18
9.7439e-18
1.75971e-11
1.97612e-17
-3.3053e-17
1.7597e-11
-2.78824e-17
5.06866e-17
1.75971e-11
2.67716e-17
-4.624e-17
1.7597e-11
-5.33513e-18
1.16166e-17
1.7597e-11
6.42082e-17
-1.26444e-16
1.7597e-11
-6.8307e-18
3.37319e-17
1.7597e-11
5.77344e-17
-1.19073e-16
1.75971e-11
-9.59538e-18
5.82146e-17
1.75971e-11
7.04501e-17
-7.83799e-17
1.75971e-11
-1.12213e-16
1.92224e-16
1.75971e-11
1.03022e-17
-1.44183e-17
1.75972e-11
-6.31034e-17
1.27418e-16
1.75972e-11
2.98553e-18
6.21352e-17
-1.62568e-16
1.64059e-16
1.53911e-11
-1.34008e-11
1.52559e-11
1.51192e-11
-8.75435e-13
1.05155e-12
1.52348e-11
4.48147e-13
-5.30041e-13
1.51899e-11
-2.34354e-13
2.70754e-13
1.52172e-11
1.34697e-13
-1.55935e-13
1.52013e-11
-7.70514e-14
8.9792e-14
1.52104e-11
4.41258e-14
-5.20783e-14
1.52048e-11
-2.45958e-14
2.89627e-14
1.52085e-11
1.31955e-14
-1.53925e-14
1.52061e-11
-6.90009e-15
7.87964e-15
1.52076e-11
3.40585e-15
-3.83913e-15
1.52068e-11
-1.60228e-15
1.85069e-15
1.52072e-11
7.42595e-16
-8.36236e-16
1.52069e-11
-3.22351e-16
3.19116e-16
1.5207e-11
1.81407e-16
-1.92812e-16
1.5207e-11
-1.37117e-16
1.22015e-16
1.5207e-11
1.06495e-16
-1.04441e-16
1.5207e-11
-7.16236e-17
6.14037e-17
1.5207e-11
5.20121e-17
-3.98861e-17
1.5207e-11
-3.97674e-17
5.22601e-17
1.5207e-11
2.77956e-17
-4.84286e-17
1.5207e-11
3.73052e-18
-2.67108e-17
1.5207e-11
-2.604e-18
5.05153e-18
1.5207e-11
2.03504e-17
-2.627e-17
1.5207e-11
-3.15669e-17
4.27066e-17
1.5207e-11
3.40294e-17
-4.04146e-17
1.5207e-11
-2.01498e-17
1.24951e-17
1.5207e-11
6.87577e-17
-1.10077e-16
1.5207e-11
-2.43034e-17
3.42692e-17
1.5207e-11
7.28131e-17
-1.0799e-16
1.5207e-11
-4.34364e-17
6.11162e-17
1.52071e-11
1.10579e-16
-8.37598e-17
1.52071e-11
-1.4982e-16
1.82898e-16
1.5207e-11
7.16437e-17
-3.63774e-17
1.52071e-11
-1.11527e-16
1.32107e-16
1.52071e-11
6.69133e-17
2.46506e-17
-1.87073e-16
1.6868e-16
1.15727e-11
-1.08522e-11
1.34008e-11
1.10153e-11
-5.96706e-13
8.75431e-13
1.12828e-11
3.14486e-13
-4.4816e-13
1.11537e-11
-1.69907e-13
2.34353e-13
1.12293e-11
9.70815e-14
-1.34633e-13
1.11854e-11
-5.49952e-14
7.73625e-14
1.12109e-11
3.06264e-14
-4.47234e-14
1.11959e-11
-1.66002e-14
2.49144e-14
1.12048e-11
8.70129e-15
-1.32931e-14
1.11997e-11
-4.36582e-15
6.84908e-15
1.12025e-11
2.07982e-15
-3.35726e-15
1.1201e-11
-9.16668e-16
1.62065e-15
1.12018e-11
4.10687e-16
-7.39415e-16
1.12014e-11
-2.25525e-16
2.94504e-16
1.12015e-11
1.4094e-16
-1.74422e-16
1.12015e-11
-1.14401e-16
1.0917e-16
1.12015e-11
8.96357e-17
-9.03339e-17
1.12015e-11
-6.94165e-17
5.60058e-17
1.12015e-11
5.47517e-17
-3.69235e-17
1.12015e-11
-3.80975e-17
4.45662e-17
1.12015e-11
2.8649e-17
-3.99927e-17
1.12015e-11
-2.35957e-17
-1.71204e-17
1.12015e-11
1.95292e-17
2.44646e-18
1.12015e-11
-4.75978e-18
-1.9943e-17
1.12015e-11
-7.79104e-18
3.27695e-17
1.12015e-11
1.82214e-17
-3.202e-17
1.12015e-11
-2.13313e-17
1.11875e-17
1.12016e-11
3.78587e-17
-8.61561e-17
1.12015e-11
-2.98854e-17
2.94754e-17
1.12016e-11
6.39602e-17
-8.83412e-17
1.12016e-11
-7.52609e-17
5.23336e-17
1.12016e-11
1.50751e-16
-7.75956e-17
1.12016e-11
-1.75766e-16
1.54589e-16
1.12015e-11
1.70194e-16
-4.22611e-17
1.12016e-11
-1.81312e-16
1.14542e-16
1.12015e-11
1.90834e-16
-3.03662e-18
-2.15557e-16
1.52125e-16
5.36619e-12
7.3681e-12
4.66937e-12
4.38769e-13
5.03501e-12
-2.35146e-13
4.83976e-12
1.26797e-13
4.95161e-12
-7.26978e-14
4.888e-12
4.17561e-14
4.9237e-12
-2.4108e-14
4.9042e-12
1.33962e-14
4.91452e-12
-7.11243e-15
4.90929e-12
3.63513e-15
4.91182e-12
-1.76189e-15
4.91068e-12
8.33056e-16
4.91119e-12
-3.78468e-16
4.91092e-12
1.47433e-16
4.91108e-12
-8.74332e-17
4.91096e-12
6.26724e-17
4.91105e-12
-5.27695e-17
4.91098e-12
3.33699e-17
4.91104e-12
-2.34501e-17
4.911e-12
2.49343e-17
4.91103e-12
-2.20927e-17
4.91101e-12
-5.19333e-18
4.91102e-12
5.52158e-19
4.91103e-12
-9.4879e-18
4.91101e-12
1.76576e-17
4.91104e-12
-1.82094e-17
4.91101e-12
9.36657e-18
4.91106e-12
-4.21554e-17
4.91103e-12
1.74507e-17
4.9111e-12
-4.1852e-17
4.91102e-12
3.20557e-17
4.91117e-12
-4.32224e-17
4.91099e-12
7.79126e-17
4.91115e-12
-3.29948e-17
4.91098e-12
6.46777e-17
4.91115e-12
-9.44342e-18
8.26923e-17
6.77481e-12
1.1617e-11
5.64631e-12
6.17775e-12
6.76776e-13
3.59065e-13
6.48842e-12
-3.54311e-13
-1.91503e-13
6.32535e-12
1.88682e-13
1.01143e-13
6.41885e-12
-1.07885e-13
-5.82145e-14
6.36583e-12
6.14447e-14
3.37034e-14
6.39528e-12
-3.46547e-14
-1.97067e-14
6.3794e-12
1.87397e-14
1.09965e-14
6.38771e-12
-9.67403e-15
-5.85229e-15
6.38358e-12
4.72911e-15
2.97563e-15
6.38553e-12
-2.19648e-15
-1.4485e-15
6.38469e-12
9.75607e-16
7.05219e-16
6.38506e-12
-4.2735e-16
-3.07966e-16
6.38484e-12
2.00083e-16
1.10799e-16
6.38498e-12
-1.39528e-16
-6.48331e-17
6.38486e-12
1.10053e-16
3.68556e-17
6.38495e-12
-9.32837e-17
-3.39416e-17
6.38489e-12
6.88695e-17
1.63134e-17
6.38494e-12
-5.49309e-17
-8.89598e-18
6.38491e-12
5.09158e-17
1.54436e-17
6.38493e-12
-4.60551e-17
-1.55912e-17
6.38491e-12
1.96133e-17
-2.04232e-17
6.38492e-12
-2.46226e-17
8.39032e-18
6.38493e-12
8.36197e-18
-1.67852e-17
6.38491e-12
8.43729e-18
2.35595e-17
6.38494e-12
-1.73043e-17
-2.10951e-17
6.38491e-12
1.6828e-17
6.80367e-18
6.38495e-12
-5.32682e-17
-5.22752e-17
6.38492e-12
3.56973e-17
1.47972e-17
6.38498e-12
-7.83943e-17
-4.88613e-17
6.38491e-12
9.06888e-17
2.30395e-17
6.38507e-12
-1.35365e-16
-2.40762e-17
6.38489e-12
1.90704e-16
6.99981e-17
6.38506e-12
-1.64929e-16
3.59177e-18
6.38488e-12
2.02447e-16
3.94692e-17
6.38507e-12
-1.52407e-16
4.09241e-17
2.18356e-16
4.13553e-17
1.53911e-11
1.52559e-11
1.10407e-11
1.51192e-11
1.05153e-12
7.72625e-13
1.52348e-11
-5.30087e-13
-3.87885e-13
1.51899e-11
2.70796e-13
1.97008e-13
1.52172e-11
-1.55984e-13
-1.13631e-13
1.52013e-11
8.99487e-14
6.56936e-14
1.52103e-11
-5.21681e-14
-3.83496e-14
1.52048e-11
2.8992e-14
2.14164e-14
1.52084e-11
-1.54174e-14
-1.14437e-14
1.52061e-11
7.86372e-15
5.8724e-15
1.52075e-11
-3.85784e-15
-2.89789e-15
1.52068e-11
1.88601e-15
1.44142e-15
1.52072e-11
-8.41741e-16
-6.397e-16
1.52069e-11
3.22718e-16
2.38746e-16
1.5207e-11
-1.8775e-16
-1.37322e-16
1.5207e-11
1.09759e-16
6.85161e-17
1.5207e-11
-9.45109e-17
-6.11e-17
1.5207e-11
5.30057e-17
2.94891e-17
1.5207e-11
-3.39584e-17
-1.50049e-17
1.5207e-11
4.66568e-17
3.11118e-17
1.5207e-11
-4.46849e-17
-3.18415e-17
1.5207e-11
-3.65031e-17
-3.84913e-17
1.5207e-11
8.70299e-18
1.23009e-17
1.5207e-11
-3.03506e-17
-2.82902e-17
1.5207e-11
4.74576e-17
3.95037e-17
1.5207e-11
-4.4191e-17
-3.42652e-17
1.5207e-11
1.67903e-17
7.28671e-18
1.5207e-11
-1.1992e-16
-9.91515e-17
1.5207e-11
4.02302e-17
2.74454e-17
1.5207e-11
-1.24631e-16
-9.71426e-17
1.5207e-11
7.37913e-17
4.40726e-17
1.52071e-11
-8.57237e-17
-4.66896e-17
1.52071e-11
1.9578e-16
1.4003e-16
1.5207e-11
-3.61456e-17
7.40767e-18
1.52071e-11
1.36424e-16
8.13408e-17
1.52071e-11
3.61052e-17
6.92849e-17
1.5868e-16
9.22094e-17
2.09713e-11
1.31052e-11
1.31052e-11
2.11377e-11
9.68344e-13
9.68358e-13
2.10272e-11
-4.74828e-13
-4.74797e-13
2.11008e-11
2.33969e-13
2.33939e-13
2.106e-11
-1.35465e-13
-1.35427e-13
2.10835e-11
7.85719e-14
7.8504e-14
2.10692e-11
-4.60015e-14
-4.60049e-14
2.10771e-11
2.56561e-14
2.56574e-14
2.10733e-11
-1.368e-14
-1.3662e-14
2.1075e-11
6.96687e-15
6.96816e-15
2.10744e-11
-3.43694e-15
-3.41612e-15
2.10747e-11
1.71988e-15
1.69454e-15
2.10745e-11
-7.501e-16
-7.43555e-16
2.10745e-11
2.66418e-16
2.62754e-16
2.10745e-11
-1.49384e-16
-1.54595e-16
2.10745e-11
7.21588e-17
7.86781e-17
2.10745e-11
-6.76066e-17
-7.39201e-17
2.10745e-11
2.78256e-17
3.24735e-17
2.10745e-11
-1.19414e-17
-1.53808e-17
2.10745e-11
3.25909e-17
3.73932e-17
2.10744e-11
-3.50958e-17