/*--------------------------------*- C++ -*----------------------------------*\
  =========                 |
  \\      /  F ield         | OpenFOAM: The Open Source CFD Toolbox
   \\    /   O peration     | Website:  https://openfoam.org
    \\  /    A nd           | Version:  13
     \\/     M anipulation  |
\*---------------------------------------------------------------------------*/
FoamFile
{
    format      ascii;
    class       volVectorField;
    location    "29";
    object      U;
}
// * * * * * * * * * * * * * * * * * * * * * * * * * * * * * * * * * * * * * //

dimensions      [0 1 -1 0 0 0 0];

internalField   nonuniform List<vector> 
3700
(
(0.0203698 0.000734684 0.000734684)
(0.026957 3.85795e-05 3.85795e-05)
(0.0220921 -2.21973e-05 -2.21973e-05)
(0.025063 1.25636e-05 1.25635e-05)
(0.0233708 -7.16276e-06 -7.1627e-06)
(0.0243391 4.07739e-06 4.07724e-06)
(0.023784 -2.30974e-06 -2.30931e-06)
(0.0241014 1.27792e-06 1.27765e-06)
(0.023923 -6.83577e-07 -6.83507e-07)
(0.0240207 3.5331e-07 3.53252e-07)
(0.0239691 -1.74877e-07 -1.74879e-07)
(0.0239953 8.415e-08 8.41129e-08)
(0.0239829 -3.90892e-08 -3.90833e-08)
(0.0239883 1.85775e-08 1.86773e-08)
(0.023986 -1.06598e-08 -1.07655e-08)
(0.023987 6.65432e-09 6.6822e-09)
(0.0239865 -5.05406e-09 -5.07115e-09)
(0.0239868 3.77643e-09 3.78766e-09)
(0.0239866 -2.82925e-09 -2.84227e-09)
(0.0239868 2.54537e-09 2.55067e-09)
(0.0239867 -2.12027e-09 -2.11765e-09)
(0.0239867 7.99961e-10 8.11145e-10)
(0.0239867 -8.28491e-10 -8.27666e-10)
(0.0239869 5.99291e-11 5.84628e-11)
(0.0239866 5.95899e-10 5.93844e-10)
(0.0239869 -9.82814e-10 -9.83197e-10)
(0.0239866 9.63389e-10 9.78638e-10)
(0.023987 -2.85904e-09 -2.85311e-09)
(0.0239867 2.21613e-09 2.23384e-09)
(0.0239874 -4.47059e-09 -4.48231e-09)
(0.0239866 4.63447e-09 4.65612e-09)
(0.0239877 -6.9332e-09 -6.95695e-09)
(0.0239869 9.62976e-09 9.64101e-09)
(0.0239873 -7.75416e-09 -7.79247e-09)
(0.0239869 9.42025e-09 9.42991e-09)
(0.0239871 -8.02306e-09 -8.0603e-09)
(0.0239868 1.10504e-08 1.09583e-08)
(0.0410481 0.00143389 0.00116119)
(0.0550037 7.74275e-05 7.05504e-05)
(0.0454011 -4.13344e-05 -3.98243e-05)
(0.0512185 2.24486e-05 2.22814e-05)
(0.0479036 -1.2846e-05 -1.26423e-05)
(0.0498008 7.35314e-06 7.10024e-06)
(0.048715 -4.20028e-06 -3.96439e-06)
(0.0493322 2.31572e-06 2.16753e-06)
(0.048988 -1.22628e-06 -1.13323e-06)
(0.0491753 6.22548e-07 5.82386e-07)
(0.0490766 -3.0269e-07 -2.82099e-07)
(0.0491266 1.43062e-07 1.40585e-07)
(0.0491029 -6.46655e-08 -6.53773e-08)
(0.0491134 2.82085e-08 3.61733e-08)
(0.0491088 -1.67874e-08 -2.37152e-08)
(0.0491108 1.14895e-08 1.1192e-08)
(0.0491097 -9.36964e-09 -8.46207e-09)
(0.0491104 6.29634e-09 7.53595e-09)
(0.04911 -4.65062e-09 -5.63857e-09)
(0.0491102 4.4177e-09 7.31435e-09)
(0.0491101 -3.861e-09 -7.62866e-09)
(0.0491102 -1.18949e-10 3.74343e-09)
(0.0491101 -6.98072e-10 -6.27773e-09)
(0.0491104 -9.49018e-10 4.19556e-09)
(0.0491099 2.47393e-09 -3.44024e-09)
(0.0491106 -2.89486e-09 2.41709e-09)
(0.0491098 2.02674e-09 -3.85443e-09)
(0.0491108 -7.16262e-09 -6.57434e-09)
(0.0491098 3.79394e-09 2.0324e-09)
(0.0491114 -8.6772e-09 -1.52695e-08)
(0.0491097 7.87372e-09 9.6416e-09)
(0.0491119 -1.12448e-08 -2.12193e-08)
(0.0491101 1.73858e-08 3.40162e-08)
(0.0491114 -1.1029e-08 -2.05194e-08)
(0.0491102 1.57988e-08 3.02863e-08)
(0.0491109 -8.24664e-09 -2.72293e-08)
(0.0491104 1.79243e-08 3.98252e-08)
(0.0528489 0.00129401 0.00115907)
(0.0713844 7.98408e-05 7.68529e-05)
(0.0591832 -4.24237e-05 -4.35463e-05)
(0.0665047 2.25877e-05 2.42613e-05)
(0.0623293 -1.29798e-05 -1.37648e-05)
(0.0647198 7.49635e-06 7.73851e-06)
(0.0633529 -4.35481e-06 -4.31967e-06)
(0.0641261 2.42167e-06 2.35218e-06)
(0.063698 -1.28808e-06 -1.2278e-06)
(0.0639291 6.54067e-07 6.267e-07)
(0.0638085 -3.19346e-07 -3.04525e-07)
(0.0638691 1.54235e-07 1.51457e-07)
(0.0638406 -6.82035e-08 -7.13839e-08)
(0.063853 2.54224e-08 3.82547e-08)
(0.0638475 -1.44949e-08 -2.48847e-08)
(0.06385 9.24372e-09 1.27987e-08)
(0.0638487 -8.129e-09 -9.76405e-09)
(0.0638494 4.3774e-09 8.3807e-09)
(0.063849 -2.83648e-09 -6.5674e-09)
(0.0638492 3.52547e-09 8.07109e-09)
(0.0638492 -3.31867e-09 -8.3217e-09)
(0.0638492 -3.27032e-09 4.87612e-09)
(0.0638491 1.35152e-09 -6.9668e-09)
(0.0638495 -3.02727e-09 5.14211e-09)
(0.0638488 4.61756e-09 -4.07201e-09)
(0.0638497 -4.35355e-09 2.90409e-09)
(0.0638486 2.19658e-09 -3.36371e-09)
(0.06385 -9.89649e-09 -5.4061e-09)
(0.0638484 3.72362e-09 2.94717e-09)
(0.0638507 -9.5096e-09 -1.38239e-08)
(0.0638481 6.34409e-09 1.16057e-08)
(0.0638512 -6.30864e-09 -2.0864e-08)
(0.0638486 1.45097e-08 3.26148e-08)
(0.0638507 -2.74342e-09 -2.36933e-08)
(0.063849 1.00908e-08 3.2309e-08)
(0.0638501 4.51915e-09 -2.94812e-08)
(0.0638496 1.04493e-08 4.03642e-08)
(0.0595315 0.000834887 0.00112488)
(0.0808257 5.45463e-05 7.67665e-05)
(0.0672009 -2.89434e-05 -4.39656e-05)
(0.0753095 1.51263e-05 2.44479e-05)
(0.0706812 -8.72255e-06 -1.38867e-05)
(0.0733317 5.06735e-06 7.82551e-06)
(0.0718169 -2.97563e-06 -4.37793e-06)
(0.0726707 1.66377e-06 2.3822e-06)
(0.0722007 -8.87616e-07 -1.24349e-06)
(0.0724529 4.50258e-07 6.32218e-07)
(0.0723223 -2.20595e-07 -3.0699e-07)
(0.0723874 1.1e-07 1.51331e-07)
(0.0723571 -4.68982e-08 -7.1492e-08)
(0.0723702 1.6652e-08 3.74134e-08)
(0.0723643 -9.23432e-09 -2.43408e-08)
(0.072367 4.10347e-09 1.33166e-08)
(0.0723655 -4.02298e-09 -1.02743e-08)
(0.0723663 1.43974e-09 8.61708e-09)
(0.0723659 -3.41745e-10 -6.77698e-09)
(0.0723661 1.73096e-09 7.96009e-09)
(0.0723662 -2.0005e-09 -8.03428e-09)
(0.072366 -4.53856e-09 4.85301e-09)
(0.0723659 1.89903e-09 -6.57682e-09)
(0.0723664 -3.28788e-09 4.81865e-09)
(0.0723656 4.29708e-09 -3.57822e-09)
(0.0723667 -3.72426e-09 2.39658e-09)
(0.0723653 9.71838e-10 -2.63974e-09)
(0.072367 -9.42566e-09 -4.98983e-09)
(0.0723649 2.32624e-09 2.97592e-09)
(0.0723677 -9.18826e-09 -1.22242e-08)
(0.0723645 3.74847e-09 1.10721e-08)
(0.0723681 -3.52902e-09 -1.9202e-08)
(0.0723651 1.21341e-08 2.98144e-08)
(0.0723677 2.30645e-09 -2.2818e-08)
(0.0723657 5.5712e-09 3.06343e-08)
(0.0723671 8.9514e-09 -2.74677e-08)
(0.0723667 5.34785e-09 3.75883e-08)
(0.0625887 0.000286149 0.00110771)
(0.0851929 1.89986e-05 7.60746e-05)
(0.0709311 -1.00925e-05 -4.39479e-05)
(0.079379 5.21832e-06 2.44191e-05)
(0.0745544 -3.01458e-06 -1.38773e-05)
(0.0773178 1.77156e-06 7.82468e-06)
(0.0757389 -1.04635e-06 -4.38491e-06)
(0.0766271 5.813e-07 2.38831e-06)
(0.0761397 -3.13113e-07 -1.24578e-06)
(0.0764003 1.546e-07 6.33665e-07)
(0.0762659 -7.84401e-08 -3.0677e-07)
(0.0763327 4.33931e-08 1.51073e-07)
(0.0763017 -1.71296e-08 -7.11992e-08)
(0.076315 6.84051e-09 3.72441e-08)
(0.0763089 -3.26039e-09 -2.45787e-08)
(0.0763118 -6.79298e-10 1.32577e-08)
(0.0763102 2.82939e-10 -1.02762e-08)
(0.076311 -1.0013e-09 8.66399e-09)
(0.0763107 1.30311e-09 -6.69044e-09)
(0.0763108 -1.70121e-10 8.00971e-09)
(0.076311 -3.14071e-10 -8.10933e-09)
(0.0763107 -3.17972e-09 4.54771e-09)
(0.0763106 1.32505e-09 -6.54488e-09)
(0.0763111 -1.83906e-09 4.60214e-09)
(0.0763102 2.27727e-09 -3.41401e-09)
(0.0763115 -1.90834e-09 2.27361e-09)
(0.0763099 6.41039e-10 -3.09009e-09)
(0.0763118 -5.01548e-09 -5.64207e-09)
(0.0763094 1.74522e-09 2.36146e-09)
(0.0763124 -5.54415e-09 -1.28099e-08)
(0.0763089 3.04106e-09 9.95676e-09)
(0.0763128 -1.40311e-09 -1.92608e-08)
(0.0763095 6.43662e-09 3.08081e-08)
(0.0763125 1.05413e-09 -2.13917e-08)
(0.0763103 2.89415e-09 3.02939e-08)
(0.0763119 5.2257e-09 -2.62216e-08)
(0.0763115 -3.66784e-10 3.81322e-08)
(0.0625887 -0.000286138 0.00110771)
(0.085193 -1.90058e-05 7.60753e-05)
(0.070931 1.0074e-05 -4.3948e-05)
(0.079379 -5.19976e-06 2.44191e-05)
(0.0745543 3.00218e-06 -1.38771e-05)
(0.0773178 -1.70785e-06 7.82477e-06)
(0.075739 1.00103e-06 -4.38446e-06)
(0.076627 -5.72081e-07 2.38768e-06)
(0.0761397 2.99797e-07 -1.24564e-06)
(0.0764003 -1.61933e-07 6.3345e-07)
(0.0762659 7.37828e-08 -3.06581e-07)
(0.0763327 -2.93513e-08 1.50657e-07)
(0.0763017 1.45786e-08 -7.1189e-08)
(0.076315 -3.67364e-09 3.71338e-08)
(0.0763089 3.14818e-09 -2.45792e-08)
(0.0763118 -4.92097e-09 1.34491e-08)
(0.0763102 4.23393e-09 -1.04224e-08)
(0.076311 -3.01356e-09 8.76037e-09)
(0.0763107 2.37656e-09 -6.78541e-09)
(0.0763108 -1.96995e-09 8.05514e-09)
(0.076311 1.44975e-09 -8.11535e-09)
(0.0763107 -7.3133e-10 4.66049e-09)
(0.0763106 4.43895e-10 -6.54026e-09)
(0.0763111 1.86138e-10 4.63626e-09)
(0.0763102 -2.46959e-10 -3.44029e-09)
(0.0763115 2.27895e-10 2.29362e-09)
(0.0763099 8.83523e-10 -3.01821e-09)
(0.0763118 1.09602e-09 -5.43593e-09)
(0.0763094 1.51286e-09 2.41017e-09)
(0.0763124 8.94679e-11 -1.24796e-08)
(0.0763089 2.8189e-09 9.98475e-09)
(0.0763128 1.43752e-09 -1.90757e-08)
(0.0763095 -1.95021e-09 3.03693e-08)
(0.0763125 -1.98764e-09 -2.1517e-08)
(0.0763103 5.35349e-11 3.0164e-08)
(0.0763119 -4.65396e-10 -2.62866e-08)
(0.0763115 -7.4684e-09 3.78416e-08)
(0.0595314 -0.000834884 0.00112487)
(0.0808258 -5.4553e-05 7.67679e-05)
(0.0672008 2.8929e-05 -4.39656e-05)
(0.0753096 -1.5112e-05 2.44478e-05)
(0.0706812 8.71351e-06 -1.38866e-05)
(0.0733318 -5.01035e-06 7.82506e-06)
(0.0718171 2.92612e-06 -4.37688e-06)
(0.0726706 -1.64789e-06 2.38123e-06)
(0.0722008 8.74526e-07 -1.24312e-06)
(0.0724528 -4.56454e-07 6.32045e-07)
(0.0723223 2.17805e-07 -3.06399e-07)
(0.0723874 -9.80087e-08 1.50323e-07)
(0.0723571 4.49115e-08 -7.14622e-08)
(0.0723702 -1.45608e-08 3.71875e-08)
(0.0723643 9.09036e-09 -2.45012e-08)
(0.072367 -9.16513e-09 1.38297e-08)
(0.0723655 7.90635e-09 -1.07034e-08)
(0.0723663 -4.8704e-09 8.95431e-09)
(0.0723659 3.53781e-09 -7.04441e-09)
(0.0723661 -3.22776e-09 8.1785e-09)
(0.0723662 2.5066e-09 -8.17074e-09)
(0.072366 1.10682e-09 5.14692e-09)
(0.0723659 -6.67227e-10 -6.69166e-09)
(0.0723664 2.08637e-09 4.97181e-09)
(0.0723656 -2.79992e-09 -3.74146e-09)
(0.0723667 2.59195e-09 2.54287e-09)
(0.0723653 -3.68884e-10 -2.76207e-09)
(0.072367 5.75412e-09 -4.60687e-09)
(0.0723649 -6.27187e-11 2.80627e-09)
(0.0723677 4.25145e-09 -1.15658e-08)
(0.0723645 4.88321e-10 1.07131e-08)
(0.0723681 4.27616e-09 -1.88129e-08)
(0.0723651 -7.91754e-09 2.91714e-08)
(0.0723677 -1.71878e-09 -2.27399e-08)
(0.0723657 -3.21152e-09 3.03832e-08)
(0.0723671 -3.45146e-09 -2.75167e-08)
(0.0723667 -1.1715e-08 3.74117e-08)
(0.0528487 -0.00129401 0.00115906)
(0.0713845 -7.98446e-05 7.68538e-05)
(0.0591831 4.24154e-05 -4.35456e-05)
(0.0665049 -2.25807e-05 2.4261e-05)
(0.0623293 1.29778e-05 -1.37653e-05)
(0.0647199 -7.44818e-06 7.7379e-06)
(0.0633531 4.29661e-06 -4.32001e-06)
(0.0641259 -2.39572e-06 2.35302e-06)
(0.0636981 1.27548e-06 -1.228e-06)
(0.063929 -6.59297e-07 6.27511e-07)
(0.0638086 3.19676e-07 -3.03849e-07)
(0.0638691 -1.46896e-07 1.50418e-07)
(0.0638406 6.72111e-08 -7.14679e-08)
(0.063853 -2.58535e-08 3.82405e-08)
(0.0638475 1.50978e-08 -2.56388e-08)
(0.06385 -1.30141e-08 1.37264e-08)
(0.0638487 1.07066e-08 -1.06619e-08)
(0.0638494 -6.8142e-09 9.18133e-09)
(0.063849 5.03025e-09 -7.07182e-09)
(0.0638492 -4.14322e-09 8.65259e-09)
(0.0638492 3.08673e-09 -8.8169e-09)
(0.0638492 9.36451e-10 5.39933e-09)
(0.0638491 -7.09979e-10 -7.5124e-09)
(0.0638495 2.50738e-09 5.63933e-09)
(0.0638488 -3.82001e-09 -4.64744e-09)
(0.0638497 3.91995e-09 3.45482e-09)
(0.0638486 -2.23753e-09 -4.36101e-09)
(0.0638501 7.50457e-09 -4.84791e-09)
(0.0638484 -2.42507e-09 1.7057e-09)
(0.0638507 6.80546e-09 -1.25175e-08)
(0.0638481 -3.89723e-09 9.44776e-09)
(0.0638512 8.90058e-09 -1.96444e-08)
(0.0638486 -1.31641e-08 3.17559e-08)
(0.0638507 4.79048e-09 -2.20306e-08)
(0.063849 -9.38863e-09 3.15055e-08)
(0.0638501 1.98894e-09 -2.87478e-08)
(0.0638496 -1.61186e-08 4.08014e-08)
(0.041048 -0.00143389 0.00116118)
(0.0550038 -7.74272e-05 7.05511e-05)
(0.045401 4.13333e-05 -3.98233e-05)
(0.0512187 -2.24492e-05 2.22798e-05)
(0.0479036 1.28507e-05 -1.26399e-05)
(0.0498009 -7.32486e-06 7.1103e-06)
(0.0487152 4.14513e-06 -3.97637e-06)
(0.049332 -2.28491e-06 2.1719e-06)
(0.0489881 1.21767e-06 -1.13635e-06)
(0.0491752 -6.2622e-07 5.82276e-07)
(0.0490767 3.06569e-07 -2.81933e-07)
(0.0491266 -1.41572e-07 1.38917e-07)
(0.0491029 6.49659e-08 -6.56914e-08)
(0.0491134 -3.10239e-08 3.47571e-08)
(0.0491088 1.80784e-08 -2.31204e-08)
(0.0491108 -1.36742e-08 1.2574e-08)
(0.0491097 1.05437e-08 -9.80486e-09)
(0.0491104 -7.52133e-09 8.36621e-09)
(0.04911 5.65743e-09 -6.35565e-09)
(0.0491102 -4.12629e-09 7.7255e-09)
(0.0491101 2.92056e-09 -7.84047e-09)
(0.0491102 -8.81724e-10 4.56684e-09)
(0.0491101 6.69548e-10 -6.5017e-09)
(0.0491104 1.06636e-09 4.7407e-09)
(0.0491099 -2.40482e-09 -3.87424e-09)
(0.0491106 3.11111e-09 2.84693e-09)
(0.0491098 -2.75947e-09 -3.94392e-09)
(0.0491109 5.91693e-09 -4.73643e-09)
(0.0491098 -3.54224e-09 1.37735e-09)
(0.0491114 7.6016e-09 -1.14945e-08)
(0.0491097 -7.23339e-09 8.05887e-09)
(0.0491119 1.42058e-08 -1.77843e-08)
(0.0491101 -1.75802e-08 2.88721e-08)
(0.0491114 1.37545e-08 -1.90943e-08)
(0.0491102 -1.60627e-08 2.78519e-08)
(0.0491109 1.40683e-08 -2.51968e-08)
(0.0491104 -2.07769e-08 3.69691e-08)
(0.0203698 -0.000734685 0.000734685)
(0.026957 -3.85785e-05 3.85804e-05)
(0.022092 2.21985e-05 -2.21959e-05)
(0.025063 -1.25655e-05 1.25619e-05)
(0.0233708 7.16619e-06 -7.16051e-06)
(0.0243391 -4.07016e-06 4.0796e-06)
(0.023784 2.28535e-06 -2.32174e-06)
(0.0241014 -1.26229e-06 1.28607e-06)
(0.0239231 6.80804e-07 -6.84925e-07)
(0.0240207 -3.54379e-07 3.53277e-07)
(0.0239691 1.7751e-07 -1.73444e-07)
(0.0239953 -8.45499e-08 8.31639e-08)
(0.0239829 3.95269e-08 -3.88352e-08)
(0.0239883 -2.03028e-08 1.73833e-08)
(0.023986 1.13148e-08 -1.01648e-08)
(0.023987 -7.43149e-09 6.70336e-09)
(0.0239865 5.36123e-09 -5.28202e-09)
(0.0239868 -4.0957e-09 3.89581e-09)
(0.0239866 3.08532e-09 -2.94354e-09)
(0.0239867 -2.17133e-09 2.84143e-09)
(0.0239867 1.44261e-09 -2.51588e-09)
(0.0239867 -1.03654e-09 9.56765e-10)
(0.0239867 5.7825e-10 -1.04626e-09)
(0.0239869 1.58625e-10 2.94574e-10)
(0.0239866 -7.77836e-10 3.79679e-10)
(0.0239869 1.28338e-09 -7.31157e-10)
(0.0239866 -1.71038e-09 4.99907e-10)
(0.023987 2.28024e-09 -2.78418e-09)
(0.0239867 -2.52611e-09 1.82487e-09)
(0.0239874 3.92079e-09 -4.08107e-09)
(0.0239866 -4.97053e-09 4.01218e-09)
(0.0239877 8.09046e-09 -6.02251e-09)
(0.0239869 -9.31873e-09 9.0383e-09)
(0.0239873 9.4046e-09 -6.73129e-09)
(0.0239869 -9.50343e-09 8.97809e-09)
(0.0239871 1.05442e-08 -6.72571e-09)
(0.0239868 -1.10499e-08 1.11205e-08)
(0.0410481 0.00116119 0.00143389)
(0.0550037 7.05502e-05 7.74277e-05)
(0.0454011 -3.98244e-05 -4.13339e-05)
(0.0512185 2.22816e-05 2.24481e-05)
(0.0479036 -1.26425e-05 -1.28452e-05)
(0.0498008 7.10084e-06 7.35156e-06)
(0.048715 -3.96515e-06 -4.19916e-06)
(0.0493322 2.16802e-06 2.315e-06)
(0.048988 -1.13344e-06 -1.22577e-06)
(0.0491753 5.82447e-07 6.22415e-07)
(0.0490766 -2.8218e-07 -3.02346e-07)
(0.0491266 1.40747e-07 1.42563e-07)
(0.0491029 -6.54147e-08 -6.45307e-08)
(0.0491134 3.59994e-08 2.83853e-08)
(0.0491088 -2.34986e-08 -1.71171e-08)
(0.0491108 1.11208e-08 1.16386e-08)
(0.0491097 -8.40763e-09 -9.49092e-09)
(0.0491104 7.49716e-09 6.38678e-09)
(0.04911 -5.6044e-09 -4.72511e-09)
(0.0491102 7.28558e-09 4.49895e-09)
(0.0491101 -7.61585e-09 -3.91908e-09)
(0.0491102 3.69807e-09 -1.01824e-11)
(0.0491101 -6.26599e-09 -7.43277e-10)
(0.0491104 4.18495e-09 -9.09119e-10)
(0.0491099 -3.42409e-09 2.42407e-09)
(0.0491106 2.40658e-09 -2.85456e-09)
(0.0491098 -3.86158e-09 1.99512e-09)
(0.0491108 -6.59749e-09 -7.11158e-09)
(0.0491098 2.02071e-09 3.7791e-09)
(0.0491114 -1.52896e-08 -8.59819e-09)
(0.0491097 9.65082e-09 7.77591e-09)
(0.0491119 -2.11856e-08 -1.12708e-08)
(0.0491101 3.40192e-08 1.73596e-08)
(0.0491114 -2.0463e-08 -1.10806e-08)
(0.0491102 3.02704e-08 1.58264e-08)
(0.0491109 -2.71559e-08 -8.35299e-09)
(0.0491104 3.99775e-08 1.77548e-08)
(0.0922855 0.00247861 0.00247861)
(0.125125 0.000149556 0.000149557)
(0.103943 -7.68994e-05 -7.6898e-05)
(0.116608 4.07294e-05 4.0728e-05)
(0.109387 -2.33731e-05 -2.33713e-05)
(0.113519 1.3433e-05 1.34291e-05)
(0.11116 -7.6905e-06 -7.68921e-06)
(0.112493 4.22997e-06 4.22897e-06)
(0.111754 -2.23734e-06 -2.23627e-06)
(0.112155 1.12254e-06 1.12267e-06)
(0.111943 -5.41934e-07 -5.41035e-07)
(0.112051 2.48975e-07 2.47757e-07)
(0.111999 -1.10972e-07 -1.1062e-07)
(0.112023 4.51961e-08 4.53741e-08)
(0.112012 -2.69136e-08 -2.74764e-08)
(0.112017 2.16187e-08 2.19629e-08)
(0.112014 -1.80331e-08 -1.83583e-08)
(0.112015 1.17431e-08 1.19827e-08)
(0.112015 -8.88168e-09 -9.04689e-09)
(0.112015 7.28175e-09 7.49568e-09)
(0.112015 -5.56026e-09 -5.72724e-09)
(0.112015 -7.81792e-10 -4.8342e-10)
(0.112015 7.33265e-10 5.90968e-10)
(0.112016 -3.53516e-09 -3.39275e-09)
(0.112014 6.87572e-09 6.72813e-09)
(0.112016 -7.68532e-09 -7.55901e-09)
(0.112014 7.44322e-09 7.28024e-09)
(0.112017 -1.19793e-08 -1.17994e-08)
(0.112014 8.47862e-09 8.32962e-09)
(0.112018 -1.14648e-08 -1.10271e-08)
(0.112014 1.49734e-08 1.45336e-08)
(0.112018 -1.63903e-08 -1.6315e-08)
(0.112014 2.31524e-08 2.28632e-08)
(0.112018 -1.95052e-08 -1.94582e-08)
(0.112015 2.41217e-08 2.40778e-08)
(0.112017 -1.03855e-08 -1.05139e-08)
(0.112016 2.31744e-08 2.29792e-08)
(0.12416 0.00244315 0.0027646)
(0.169638 0.000166085 0.000176276)
(0.141497 -8.35427e-05 -8.96604e-05)
(0.158095 4.28768e-05 4.65764e-05)
(0.148622 -2.4692e-05 -2.67668e-05)
(0.154045 1.4247e-05 1.53908e-05)
(0.150951 -8.27466e-06 -8.83701e-06)
(0.152691 4.61021e-06 4.85048e-06)
(0.151733 -2.45925e-06 -2.54619e-06)
(0.152248 1.25894e-06 1.26864e-06)
(0.151979 -6.20647e-07 -6.03894e-07)
(0.152115 3.05906e-07 2.75866e-07)
(0.15205 -1.36242e-07 -1.21628e-07)
(0.152079 5.22887e-08 4.81556e-08)
(0.152066 -2.97395e-08 -3.08325e-08)
(0.152072 1.63254e-08 2.42901e-08)
(0.152069 -1.40544e-08 -2.10295e-08)
(0.15207 7.59241e-09 1.34413e-08)
(0.15207 -4.57135e-09 -1.00637e-08)
(0.15207 6.84103e-09 9.49665e-09)
(0.15207 -6.67205e-09 -8.05973e-09)
(0.15207 -6.78415e-09 -1.33955e-09)
(0.15207 1.98847e-09 -1.00917e-10)
(0.15207 -5.41092e-09 -3.58591e-09)
(0.152069 7.95198e-09 7.54231e-09)
(0.152071 -7.25203e-09 -8.3031e-09)
(0.152068 2.49652e-09 6.50262e-09)
(0.152072 -1.97254e-08 -1.61861e-08)
(0.152067 6.30951e-09 8.62878e-09)
(0.152073 -2.0396e-08 -1.59425e-08)
(0.152067 1.11594e-08 1.62721e-08)
(0.152074 -1.27145e-08 -1.99054e-08)
(0.152068 3.09014e-08 3.17696e-08)
(0.152073 -3.4653e-09 -2.06196e-08)
(0.152069 2.00457e-08 3.04619e-08)
(0.152072 8.09939e-09 -9.24092e-09)
(0.152071 2.34932e-08 3.05754e-08)
(0.142839 0.00167269 0.00282207)
(0.196151 0.000120676 0.000183302)
(0.164053 -5.98815e-05 -9.37994e-05)
(0.182775 2.99739e-05 4.81167e-05)
(0.172077 -1.73364e-05 -2.77021e-05)
(0.178203 1.00733e-05 1.59523e-05)
(0.174709 -5.90933e-06 -9.19703e-06)
(0.176666 3.30382e-06 5.05639e-06)
(0.175596 -1.76945e-06 -2.65109e-06)
(0.176168 9.02322e-07 1.3201e-06)
(0.175872 -4.48558e-07 -6.25597e-07)
(0.17602 2.26869e-07 2.85939e-07)
(0.17595 -9.84898e-08 -1.24837e-07)
(0.175981 3.52876e-08 4.72228e-08)
(0.175966 -1.90231e-08 -3.07907e-08)
(0.175973 7.87446e-09 2.42027e-08)
(0.17597 -7.48323e-09 -2.14691e-08)
(0.175971 2.5118e-09 1.3178e-08)
(0.175971 -4.73911e-10 -9.59654e-09)
(0.175971 3.35616e-09 9.80192e-09)
(0.175971 -3.83374e-09 -8.57071e-09)
(0.17597 -8.88774e-09 -3.05469e-09)
(0.17597 3.59518e-09 5.48809e-10)
(0.175971 -6.1677e-09 -4.65624e-09)
(0.175969 8.01122e-09 8.73348e-09)
(0.175972 -6.81883e-09 -9.14352e-09)
(0.175969 1.97104e-09 5.98271e-09)
(0.175973 -1.77987e-08 -1.90166e-08)
(0.175967 4.84744e-09 8.26797e-09)
(0.175974 -1.71391e-08 -1.8196e-08)
(0.175966 7.57097e-09 1.55367e-08)
(0.175975 -5.43964e-09 -1.97507e-08)
(0.175967 2.18957e-08 3.43378e-08)
(0.175974 4.82378e-09 -1.70452e-08)
(0.175969 1.04659e-08 3.0021e-08)
(0.175973 1.75642e-08 -3.76024e-09)
(0.175972 9.32958e-09 3.14602e-08)
(0.151497 0.000588371 0.00282511)
(0.208569 4.33687e-05 0.000183797)
(0.174676 -2.139e-05 -9.48573e-05)
(0.194322 1.05579e-05 4.83604e-05)
(0.183088 -6.11949e-06 -2.78658e-05)
(0.189523 3.60193e-06 1.60499e-05)
(0.185854 -2.12815e-06 -9.26939e-06)
(0.187905 1.1804e-06 5.1014e-06)
(0.186787 -6.36595e-07 -2.67347e-06)
(0.187382 3.14081e-07 1.33245e-06)
(0.187075 -1.62078e-07 -6.30119e-07)
(0.187228 9.06474e-08 2.88521e-07)
(0.187156 -3.67009e-08 -1.25442e-07)
(0.187188 1.39707e-08 4.66365e-08)
(0.187173 -6.54181e-09 -3.07247e-08)
(0.18718 -1.61798e-09 2.38989e-08)
(0.187176 6.79615e-10 -2.1414e-08)
(0.187178 -2.18717e-09 1.29202e-08)
(0.187177 2.70562e-09 -9.2159e-09)
(0.187177 -1.8382e-10 9.95903e-09)
(0.187178 -8.46681e-10 -8.88322e-09)
(0.187177 -6.44763e-09 -3.81629e-09)
(0.187177 2.45052e-09 6.78796e-10)
(0.187178 -3.44044e-09 -4.98066e-09)
(0.187176 4.29254e-09 8.99825e-09)
(0.187179 -3.5153e-09 -9.21426e-09)
(0.187175 1.17352e-09 5.25315e-09)
(0.18718 -9.86181e-09 -2.02674e-08)
(0.187173 3.54767e-09 7.79023e-09)
(0.187181 -1.04713e-08 -1.94238e-08)
(0.187172 6.00247e-09 1.48741e-08)
(0.187181 -1.34762e-09 -1.99297e-08)
(0.187173 1.17089e-08 3.60577e-08)
(0.187181 2.78954e-09 -1.51481e-08)
(0.187175 5.63338e-09 2.98987e-08)
(0.18718 1.1392e-08 -1.65953e-09)
(0.187179 -1.86509e-09 3.29854e-08)
(0.151497 -0.000588354 0.00282511)
(0.20857 -4.33854e-05 0.000183797)
(0.174676 2.13549e-05 -9.48568e-05)
(0.194322 -1.05238e-05 4.83601e-05)
(0.183087 6.09872e-06 -2.78652e-05)
(0.189523 -3.46124e-06 1.60472e-05)
(0.185854 2.01415e-06 -9.26683e-06)
(0.187904 -1.1492e-06 5.10011e-06)
(0.186787 6.06939e-07 -2.67304e-06)
(0.187381 -3.31614e-07 1.33274e-06)
(0.187075 1.52964e-07 -6.30066e-07)
(0.187228 -6.15439e-08 2.88061e-07)
(0.187156 3.10867e-08 -1.25405e-07)
(0.187188 -9.27899e-09 4.65742e-08)
(0.187173 6.91204e-09 -3.0618e-08)
(0.18718 -1.06585e-08 2.40528e-08)
(0.187176 8.67827e-09 -2.14806e-08)
(0.187178 -6.33911e-09 1.29811e-08)
(0.187177 5.12631e-09 -9.26118e-09)
(0.187177 -3.64254e-09 9.92663e-09)
(0.187178 2.3205e-09 -8.80835e-09)
(0.187177 -2.18241e-09 -3.67985e-09)
(0.187177 7.27421e-10 7.32644e-10)
(0.187178 2.78135e-10 -5.00014e-09)
(0.187176 -4.21904e-10 9.02165e-09)
(0.187179 4.88679e-10 -9.26648e-09)
(0.187175 9.52196e-10 5.40157e-09)
(0.18718 9.36569e-10 -2.00429e-08)
(0.187173 2.45076e-09 7.87853e-09)
(0.187181 -7.61507e-10 -1.91518e-08)
(0.187172 4.64497e-09 1.50055e-08)
(0.187181 3.63545e-09 -2.0064e-08)
(0.187173 -2.41511e-09 3.57306e-08)
(0.187181 -1.79136e-09 -1.55221e-08)
(0.187175 2.2103e-10 2.98628e-08)
(0.18718 1.72751e-09 -2.13996e-09)
(0.187179 -1.47356e-08 3.31098e-08)
(0.142839 -0.00167267 0.00282207)
(0.196151 -0.00012069 0.000183303)
(0.164052 5.98525e-05 -9.37979e-05)
(0.182775 -2.99465e-05 4.81158e-05)
(0.172076 1.73217e-05 -2.77006e-05)
(0.178203 -9.94476e-06 1.5943e-05)
(0.17471 5.78956e-06 -9.18857e-06)
(0.176666 -3.26286e-06 5.05265e-06)
(0.175596 1.74082e-06 -2.64958e-06)
(0.176167 -9.1838e-07 1.32105e-06)
(0.175872 4.43168e-07 -6.25324e-07)
(0.17602 -2.02605e-07 2.84792e-07)
(0.17595 9.41583e-08 -1.24693e-07)
(0.175981 -3.28754e-08 4.72134e-08)
(0.175966 1.96835e-08 -3.06755e-08)
(0.175973 -1.88378e-08 2.45229e-08)
(0.17597 1.55708e-08 -2.15649e-08)
(0.175971 -9.92182e-09 1.33223e-08)
(0.175971 7.25514e-09 -9.67517e-09)
(0.175971 -6.15867e-09 9.74812e-09)
(0.175971 4.45897e-09 -8.43104e-09)
(0.17597 1.41063e-09 -2.74768e-09)
(0.17597 -1.12978e-09 6.43233e-10)
(0.175971 3.71904e-09 -4.71497e-09)
(0.175969 -4.92857e-09 8.77207e-09)
(0.175972 4.57342e-09 -9.25728e-09)
(0.175969 -7.28319e-10 6.2224e-09)
(0.175973 9.97778e-09 -1.86455e-08)
(0.175967 -2.47061e-11 8.42811e-09)
(0.175974 7.59143e-09 -1.79199e-08)
(0.175966 1.01778e-09 1.5838e-08)
(0.175975 9.06398e-09 -2.04737e-08)
(0.175967 -1.45819e-08 3.41981e-08)
(0.175974 -2.26452e-09 -1.80112e-08)
(0.175969 -6.03452e-09 3.02133e-08)
(0.175973 -3.80489e-09 -5.22224e-09)
(0.175972 -2.42413e-08 3.23566e-08)
(0.12416 -0.00244314 0.0027646)
(0.169639 -0.000166093 0.000176277)
(0.141496 8.35262e-05 -8.9658e-05)
(0.158096 -4.2863e-05 4.65746e-05)
(0.148622 2.469e-05 -2.67642e-05)
(0.154045 -1.41452e-05 1.53765e-05)
(0.150951 8.14442e-06 -8.82337e-06)
(0.15269 -4.55058e-06 4.84456e-06)
(0.151734 2.43407e-06 -2.54391e-06)
(0.152248 -1.27272e-06 1.26984e-06)
(0.151979 6.23146e-07 -6.03341e-07)
(0.152115 -2.91168e-07 2.74245e-07)
(0.15205 1.34561e-07 -1.21356e-07)
(0.152079 -5.45574e-08 4.81277e-08)
(0.152066 3.1329e-08 -3.0683e-08)
(0.152072 -2.5155e-08 2.46254e-08)
(0.152069 2.00686e-08 -2.10659e-08)
(0.15207 -1.31414e-08 1.3577e-08)
(0.15207 9.54563e-09 -1.01271e-08)
(0.15207 -7.79479e-09 9.4323e-09)
(0.15207 5.68099e-09 -7.87806e-09)
(0.15207 1.36953e-09 -9.87512e-10)
(0.15207 -7.78231e-10 6.26088e-11)
(0.15207 4.18399e-09 -3.71554e-09)
(0.152069 -6.21956e-09 7.63116e-09)
(0.152071 6.34135e-09 -8.48247e-09)
(0.152068 -2.85109e-09 6.88328e-09)
(0.152072 1.3573e-08 -1.58351e-08)
(0.152067 -3.38417e-09 9.03131e-09)
(0.152073 1.31766e-08 -1.5982e-08)
(0.152067 -5.76417e-09 1.70511e-08)
(0.152074 1.7988e-08 -2.12606e-08)
(0.152068 -2.6158e-08 3.20944e-08)
(0.152073 8.32768e-09 -2.22503e-08)
(0.152069 -1.75907e-08 3.1038e-08)
(0.152072 6.32098e-09 -1.15165e-08)
(0.152071 -3.42342e-08 3.20087e-08)
(0.0922852 -0.00247861 0.00247861)
(0.125125 -0.000149556 0.000149557)
(0.103942 7.68958e-05 -7.68935e-05)
(0.116608 -4.0729e-05 4.07243e-05)
(0.109387 2.3382e-05 -2.33672e-05)
(0.113519 -1.33701e-05 1.34121e-05)
(0.11116 7.58657e-06 -7.68129e-06)
(0.112493 -4.1758e-06 4.22915e-06)
(0.111754 2.22013e-06 -2.23397e-06)
(0.112155 -1.133e-06 1.12372e-06)
(0.111943 5.49834e-07 -5.38704e-07)
(0.112051 -2.46669e-07 2.45837e-07)
(0.111999 1.11578e-07 -1.09898e-07)
(0.112023 -5.08598e-08 4.48908e-08)
(0.112012 2.87643e-08 -2.75388e-08)
(0.112017 -2.55185e-08 2.17967e-08)
(0.112014 2.01615e-08 -1.81159e-08)
(0.112015 -1.38981e-08 1.2008e-08)
(0.112015 1.07243e-08 -8.95921e-09)
(0.112015 -6.41296e-09 7.76382e-09)
(0.112015 3.78707e-09 -6.04679e-09)
(0.112015 -1.00596e-09 -3.31424e-10)
(0.112015 -6.58393e-10 4.65547e-10)
(0.112016 3.73013e-09 -3.40246e-09)
(0.112014 -6.69761e-09 6.62611e-09)
(0.112016 8.06089e-09 -7.48541e-09)
(0.112014 -8.04232e-09 6.91638e-09)
(0.112017 1.06053e-08 -1.2211e-08)
(0.112014 -7.43137e-09 8.35464e-09)
(0.112018 1.12265e-08 -1.23751e-08)
(0.112014 -1.35386e-08 1.49358e-08)
(0.112018 2.41882e-08 -1.80111e-08)
(0.112014 -2.65088e-08 2.51044e-08)
(0.112018 2.45314e-08 -2.02095e-08)
(0.112015 -2.57297e-08 2.52388e-08)
(0.112017 2.18875e-08 -1.21509e-08)
(0.112016 -3.14573e-08 2.59241e-08)
(0.041048 -0.00116118 0.00143389)
(0.0550038 -7.05482e-05 7.74293e-05)
(0.045401 3.98273e-05 -4.1331e-05)
(0.0512187 -2.22856e-05 2.24452e-05)
(0.0479036 1.26498e-05 -1.28417e-05)
(0.0498009 -7.09208e-06 7.34775e-06)
(0.0487152 3.91407e-06 -4.2087e-06)
(0.049332 -2.13256e-06 2.32376e-06)
(0.0489881 1.12929e-06 -1.22663e-06)
(0.0491752 -5.84996e-07 6.2305e-07)
(0.0490767 2.88928e-07 -3.00037e-07)
(0.0491266 -1.41018e-07 1.4042e-07)
(0.0491029 6.68641e-08 -6.3995e-08)
(0.0491134 -3.95909e-08 2.66766e-08)
(0.0491088 2.49386e-08 -1.63508e-08)
(0.0491108 -1.39908e-08 1.19159e-08)
(0.0491097 1.0103e-08 -9.90027e-09)
(0.0491104 -8.85856e-09 6.75017e-09)
(0.04911 6.7245e-09 -4.99541e-09)
(0.0491102 -6.63013e-09 4.97551e-09)
(0.0491101 6.0782e-09 -4.45271e-09)
(0.0491102 -4.82496e-09 4.67821e-10)
(0.0491101 5.82593e-09 -1.08882e-09)
(0.0491104 -4.05721e-09 -5.41165e-10)
(0.0491099 3.30771e-09 2.0485e-09)
(0.0491106 -2.00075e-09 -2.4743e-09)
(0.0491098 2.1164e-09 1.38531e-09)
(0.0491109 3.84571e-09 -6.63194e-09)
(0.0491098 -2.262e-09 3.15611e-09)
(0.0491114 1.11642e-08 -7.69776e-09)
(0.0491097 -9.22814e-09 6.8112e-09)
(0.0491119 2.13951e-08 -1.02803e-08)
(0.0491101 -2.9457e-08 1.63253e-08)
(0.0491114 2.3346e-08 -1.00701e-08)
(0.0491102 -2.86339e-08 1.51903e-08)
(0.0491109 3.17189e-08 -7.54327e-09)
(0.0491104 -3.75317e-08 1.87479e-08)
(0.0528489 0.00115907 0.00129401)
(0.0713844 7.68527e-05 7.98414e-05)
(0.0591832 -4.35466e-05 -4.24223e-05)
(0.0665047 2.42616e-05 2.25862e-05)
(0.0623293 -1.37653e-05 -1.29779e-05)
(0.0647198 7.73908e-06 7.49297e-06)
(0.0633529 -4.32038e-06 -4.35406e-06)
(0.0641261 2.35269e-06 2.42121e-06)
(0.063698 -1.22799e-06 -1.28707e-06)
(0.0639291 6.26806e-07 6.53888e-07)
(0.0638085 -3.0462e-07 -3.18374e-07)
(0.0638691 1.51731e-07 1.53002e-07)
(0.0638406 -7.1408e-08 -6.78623e-08)
(0.063853 3.80955e-08 2.53689e-08)
(0.0638475 -2.46545e-08 -1.48609e-08)
(0.06385 1.26469e-08 9.55477e-09)
(0.0638487 -9.64007e-09 -8.41055e-09)
(0.0638494 8.30289e-09 4.58698e-09)
(0.063849 -6.5016e-09 -3.00487e-09)
(0.0638492 8.01632e-09 3.74098e-09)
(0.0638492 -8.3001e-09 -3.49841e-09)
(0.0638492 4.77712e-09 -3.00277e-09)
(0.0638491 -6.94087e-09 1.22301e-09)
(0.0638495 5.10256e-09 -2.90394e-09)
(0.0638488 -4.02823e-09 4.4819e-09)
(0.0638497 2.86897e-09 -4.23376e-09)
(0.0638486 -3.37844e-09 2.06051e-09)
(0.06385 -5.50977e-09 -9.75596e-09)
(0.0638484 2.9404e-09 3.62229e-09)
(0.0638507 -1.40601e-08 -9.20628e-09)
(0.0638481 1.17097e-08 6.00051e-09)
(0.0638512 -2.09461e-08 -6.22338e-09)
(0.0638486 3.28538e-08 1.43061e-08)
(0.0638507 -2.36978e-08 -2.70884e-09)
(0.063849 3.24253e-08 1.00742e-08)
(0.0638501 -2.945e-08 4.4408e-09)
(0.0638496 4.06312e-08 1.03661e-08)
(0.12416 0.0027646 0.00244314)
(0.169638 0.000176275 0.000166087)
(0.141497 -8.96626e-05 -8.35396e-05)
(0.158095 4.65785e-05 4.28736e-05)
(0.148622 -2.67694e-05 -2.46881e-05)
(0.154045 1.53964e-05 1.42395e-05)
(0.150951 -8.83821e-06 -8.27394e-06)
(0.152691 4.85139e-06 4.60951e-06)
(0.151733 -2.5477e-06 -2.45721e-06)
(0.152248 1.2684e-06 1.25912e-06)
(0.151979 -6.05275e-07 -6.18502e-07)
(0.152115 2.77635e-07 3.03232e-07)
(0.15205 -1.22108e-07 -1.35475e-07)
(0.152079 4.79927e-08 5.20972e-08)
(0.152066 -3.01011e-08 -3.04763e-08)
(0.152072 2.3825e-08 1.70309e-08)
(0.152069 -2.05802e-08 -1.47353e-08)
(0.15207 1.31019e-08 8.09057e-09)
(0.15207 -9.82821e-09 -4.9326e-09)
(0.15207 9.17553e-09 7.33824e-09)
(0.15207 -7.79422e-09 -7.07916e-09)
(0.15207 -1.77105e-09 -6.14677e-09)
(0.15207 1.16683e-10 1.67664e-09)
(0.15207 -3.80173e-09 -5.09392e-09)
(0.152069 7.76732e-09 7.62591e-09)
(0.152071 -8.50035e-09 -6.96206e-09)
(0.152068 6.7826e-09 2.13175e-09)
(0.152072 -1.64417e-08 -1.93499e-08)
(0.152067 8.89443e-09 5.99496e-09)
(0.152073 -1.65943e-08 -1.94947e-08)
(0.152067 1.69759e-08 1.02538e-08)
(0.152074 -2.00496e-08 -1.24548e-08)
(0.152068 3.21833e-08 3.02413e-08)
(0.152073 -2.07595e-08 -3.28778e-09)