/*--------------------------------*- C++ -*----------------------------------*\
  =========                 |
  \\      /  F ield         | OpenFOAM: The Open Source CFD Toolbox
   \\    /   O peration     | Website:  https://openfoam.org
    \\  /    A nd           | Version:  13
     \\/     M anipulation  |
\*---------------------------------------------------------------------------*/
FoamFile
{
    format      ascii;
    class       surfaceScalarField;
    location    "29";
    object      phi;
}
// * * * * * * * * * * * * * * * * * * * * * * * * * * * * * * * * * * * * * //

dimensions      [0 3 -1 0 0 0 0];

internalField   nonuniform List<scalar> 
55900
(
2.99142e-14
6.83927e-14
6.83928e-14
2.21851e-14
3.86461e-15
3.86463e-15
2.5204e-14
-1.50959e-15
-1.50959e-15
2.32821e-14
9.60941e-16
9.6095e-16
2.43991e-14
-5.58595e-16
-5.58604e-16
2.37479e-14
3.25664e-16
3.25696e-16
2.4123e-14
-1.87699e-16
-1.87723e-16
2.3912e-14
1.05688e-16
1.05693e-16
2.40249e-14
-5.66814e-17
-5.66781e-17
2.3967e-14
2.91397e-17
2.91371e-17
2.39943e-14
-1.37685e-17
-1.3766e-17
2.39821e-14
6.19908e-18
6.19376e-18
2.39871e-14
-2.51227e-18
-2.51148e-18
2.39852e-14
1.03222e-18
1.0291e-18
2.3986e-14
-3.50731e-19
-3.51914e-19
2.39856e-14
2.24008e-19
2.23243e-19
2.39859e-14
-9.87332e-20
-1.00418e-19
2.39857e-14
9.68624e-20
9.6299e-20
2.39859e-14
-9.23696e-20
-9.36353e-20
2.39859e-14
5.1859e-20
5.14673e-20
2.39861e-14
-9.77663e-20
-9.9477e-20
2.39861e-14
1.13706e-20
1.06469e-20
2.39863e-14
-9.36449e-20
-9.48116e-20
2.39864e-14
-3.05073e-20
-3.13817e-20
2.39866e-14
-1.07816e-19
-1.08457e-19
2.39864e-14
1.10286e-19
1.09763e-19
2.39866e-14
-8.01469e-20
-7.97582e-20
2.39863e-14
1.35678e-19
1.36308e-19
2.39863e-14
2.95895e-21
3.14036e-21
2.39862e-14
7.4749e-20
7.49704e-20
2.39863e-14
-4.23459e-20
-4.23688e-20
2.3986e-14
1.32693e-19
1.32997e-19
2.39863e-14
-1.65259e-19
-1.65856e-19
2.39861e-14
1.41575e-19
1.41368e-19
2.39865e-14
-2.1434e-19
-2.14812e-19
2.39861e-14
2.24945e-19
2.25029e-19
2.39866e-14
-2.54784e-19
-2.55175e-19
2.39861e-14
2.17533e-19
2.17794e-19
2.39865e-14
-1.94648e-19
-1.95216e-19
2.39864e-14
6.44415e-20
6.41546e-20
2.39867e-14
-1.40803e-19
-1.41088e-19
2.39864e-14
1.36861e-19
1.35403e-19
2.39867e-14
-1.32283e-19
-1.31031e-19
2.39864e-14
1.71108e-19
1.71273e-19
2.39865e-14
-6.81951e-20
-6.81172e-20
2.3986e-14
2.47431e-19
2.47607e-19
2.39865e-14
-2.29045e-19
-2.29285e-19
2.39859e-14
3.00065e-19
3.00437e-19
2.39864e-14
-2.30921e-19
-2.31151e-19
2.39859e-14
2.58357e-19
2.58775e-19
2.39863e-14
-1.6658e-19
-1.6663e-19
2.39859e-14
1.96543e-19
1.96933e-19
2.39861e-14
-1.33552e-19
-1.33539e-19
2.39857e-14
2.11523e-19
2.12108e-19
2.39861e-14
-1.6696e-19
-1.67305e-19
2.39857e-14
1.93537e-19
1.93735e-19
2.39861e-14
-1.78743e-19
-1.79085e-19
2.39858e-14
1.26913e-19
1.27031e-19
2.39861e-14
-1.33665e-19
-1.33946e-19
2.39858e-14
1.31906e-19
1.32159e-19
2.39861e-14
-1.34347e-19
-1.34506e-19
2.39858e-14
1.44898e-19
1.45259e-19
2.39861e-14
-1.50416e-19
-1.50434e-19
2.39857e-14
1.90127e-19
1.9076e-19
2.39861e-14
-1.94203e-19
-1.94513e-19
2.39857e-14
1.70532e-19
1.70799e-19
2.39861e-14
-2.03202e-19
-2.03547e-19
2.39859e-14
1.04458e-19
1.04528e-19
2.39862e-14
-1.68445e-19
-1.6873e-19
2.39859e-14
1.30136e-19
1.30313e-19
2.39863e-14
-1.91948e-19
-1.92189e-19
2.3986e-14
1.50646e-19
1.50904e-19
2.39863e-14
-1.93868e-19
-1.94038e-19
2.39861e-14
1.30884e-19
1.31262e-19
2.39864e-14
-1.76861e-19
-1.77409e-19
2.39863e-14
5.70882e-20
5.6919e-20
2.39866e-14
-1.83609e-19
-1.83892e-19
2.39865e-14
6.9002e-20
6.82848e-20
2.39867e-14
-1.19762e-19
-1.19294e-19
2.39865e-14
9.55878e-20
9.56209e-20
2.39866e-14
-5.56471e-20
-5.56562e-20
2.39865e-14
5.02215e-20
5.02522e-20
2.39867e-14
-9.73607e-20
-9.73665e-20
2.39866e-14
6.76845e-20
6.77374e-20
2.39867e-14
-7.73355e-20
-7.72642e-20
2.39865e-14
1.03778e-19
1.04014e-19
2.39866e-14
-6.06094e-20
-6.06599e-20
2.39865e-14
5.74911e-20
5.76332e-20
2.39867e-14
-7.43064e-20
-7.43396e-20
2.39865e-14
4.60473e-20
4.65717e-20
2.39866e-14
-1.81837e-20
-1.82153e-20
2.39864e-14
1.07187e-19
1.08066e-19
2.39864e-14
-7.94047e-21
-7.79424e-21
2.39862e-14
7.40978e-20
7.47147e-20
2.39863e-14
-3.16726e-20
-3.18649e-20
2.39862e-14
1.92263e-20
1.92596e-20
2.39863e-14
-2.54678e-20
-2.55737e-20
2.39862e-14
3.93996e-20
3.95418e-20
2.39863e-14
-4.53075e-20
-4.53648e-20
2.39862e-14
6.82397e-20
6.87167e-20
2.39864e-14
-9.03029e-20
-9.1124e-20
2.39863e-14
4.01257e-20
3.99197e-20
2.39865e-14
-1.18289e-19
-1.18845e-19
2.39865e-14
2.3368e-20
2.33052e-20
2.39866e-14
-5.66815e-20
-5.70875e-20
2.39864e-14
8.79559e-20
8.80791e-20
2.39865e-14
-5.37702e-20
-5.38937e-20
2.39864e-14
5.64019e-20
5.64756e-20
2.39866e-14
-8.46594e-20
-8.47013e-20
2.39865e-14
5.19818e-20
5.23823e-20
2.39865e-14
-3.22231e-20
-3.22217e-20
2.39863e-14
1.2403e-19
1.24782e-19
2.39864e-14
-3.45359e-20
-3.44229e-20
2.39861e-14
1.013e-19
1.01858e-19
2.39863e-14
-7.33914e-20
-7.36151e-20
2.39862e-14
5.2771e-20
5.28496e-20
2.39863e-14
-5.86501e-20
-5.87888e-20
2.39862e-14
5.13488e-20
5.15104e-20
2.39863e-14
-5.10208e-20
-5.10762e-20
2.39862e-14
5.76334e-20
5.80646e-20
2.39864e-14
-8.27866e-20
-8.35196e-20
2.39863e-14
2.31403e-20
2.29533e-20
2.39865e-14
-1.07275e-19
-1.07691e-19
2.39865e-14
1.16172e-20
1.17932e-20
2.39866e-14
-5.08253e-20
-5.14729e-20
2.39865e-14
7.26463e-20
7.25444e-20
2.39866e-14
-4.06181e-20
-4.07281e-20
2.39865e-14
3.44495e-20
3.44392e-20
2.39866e-14
-5.70835e-20
-5.70298e-20
2.39866e-14
9.538e-21
9.86057e-21
2.39866e-14
-1.50229e-20
-1.5419e-20
2.39865e-14
5.67626e-20
5.65701e-20
2.39866e-14
-2.94504e-20
-2.94552e-20
2.39865e-14
4.42203e-20
4.42281e-20
2.39866e-14
-8.09099e-20
-8.07044e-20
2.39865e-14
6.9215e-20
6.95113e-20
2.39865e-14
-1.43945e-20
-1.41392e-20
2.39863e-14
1.33115e-19
1.33774e-19
2.39862e-14
1.1124e-20
1.15942e-20
2.39861e-14
5.49978e-20
5.55639e-20
2.3986e-14
3.33538e-20
3.36511e-20
2.3986e-14
1.50166e-20
1.56641e-20
2.39859e-14
4.33999e-20
4.3252e-20
2.39862e-14
-1.34175e-19
-1.34165e-19
2.39859e-14
1.15178e-19
1.15164e-19
2.39861e-14
-9.31802e-20
-9.29941e-20
2.39862e-14
-2.56644e-20
-2.62515e-20
2.39862e-14
4.98678e-21
4.98025e-21
2.39864e-14
-1.10668e-19
-1.10928e-19
2.39865e-14
-3.64801e-20
-3.51047e-20
2.39864e-14
3.20339e-20
3.12086e-20
2.39861e-14
1.19864e-19
1.20873e-19
2.39861e-14
1.56574e-20
1.62938e-20
2.3986e-14
2.82314e-20
2.92317e-20
2.39857e-14
1.13451e-19
1.14014e-19
2.39859e-14
-8.13582e-20
-8.04215e-20
2.39857e-14
8.62848e-20
8.62876e-20
2.39858e-14
-3.87909e-20
-3.83588e-20
2.39858e-14
-2.89221e-20
-2.90592e-20
2.39858e-14
8.87568e-21
9.09907e-21
2.39859e-14
-5.61732e-20
-5.59547e-20
2.39856e-14
1.35686e-19
1.36611e-19
2.39859e-14
-1.32405e-19
-1.32544e-19
2.39856e-14
1.27317e-19
1.27717e-19
2.39859e-14
-1.49093e-19
-1.49317e-19
2.39857e-14
7.89534e-20
7.91148e-20
2.39858e-14
-8.89317e-20
-8.76361e-20
2.39854e-14
1.8436e-19
1.86707e-19
2.39856e-14
-1.51581e-19
-1.50654e-19
2.39852e-14
2.01066e-19
2.02668e-19
2.39855e-14
-1.72715e-19
-1.72244e-19
2.39852e-14
1.56868e-19
1.57474e-19
2.39854e-14
-1.44048e-19
-1.43432e-19
2.39851e-14
1.4854e-19
1.49205e-19
2.39854e-14
-1.53041e-19
-1.52527e-19
2.3985e-14
1.64272e-19
1.64748e-19
2.39854e-14
-1.74841e-19
-1.74525e-19
2.3985e-14
1.80043e-19
1.803e-19
2.39853e-14
-1.85628e-19
-1.855e-19
2.3985e-14
1.85461e-19
1.85502e-19
2.39854e-14
-1.87756e-19
-1.87815e-19
2.3985e-14
1.86335e-19
1.86179e-19
2.39854e-14
-1.8724e-19
-1.87474e-19
2.3985e-14
1.85653e-19
1.85335e-19
2.39854e-14
-1.8526e-19
-1.85643e-19
2.39851e-14
1.8285e-19
1.82411e-19
2.39855e-14
-1.81602e-19
-1.82108e-19
2.39851e-14
1.76495e-19
1.75968e-19
2.39855e-14
-1.75859e-19
-1.76471e-19
2.39852e-14
1.6538e-19
1.64781e-19
2.39856e-14
-1.6926e-19
-1.6997e-19
2.39853e-14
1.51293e-19
1.50629e-19
2.39857e-14
-1.64169e-19
-1.64962e-19
2.39854e-14
1.36203e-19
1.35505e-19
2.39858e-14
-1.6025e-19
-1.60988e-19
2.39855e-14
1.49756e-19
1.49386e-19
2.3986e-14
-2.13819e-19
-2.15567e-19
2.39857e-14
1.58732e-19
1.57756e-19
2.39862e-14
-2.36023e-19
-2.37585e-19
4.75279e-20
4.50526e-20
5.54221e-14
7.25345e-14
1.07135e-13
4.74817e-14
5.16892e-15
6.63643e-15
5.03053e-14
-1.8049e-15
-2.52918e-15
4.84199e-14
1.21919e-15
1.62724e-15
4.95149e-14
-7.09236e-16
-9.44951e-16
4.88758e-14
4.15441e-16
5.49744e-16
4.92433e-14
-2.41154e-16
-3.15148e-16
4.90374e-14
1.37141e-16
1.75542e-16
4.91461e-14
-7.40849e-17
-9.23664e-17
4.90913e-14
3.88482e-17
4.61115e-17
4.91162e-14
-1.84098e-17
-2.09118e-17
4.91054e-14
8.52037e-18
8.86977e-18
4.91097e-14
-3.28846e-18
-3.34812e-18
4.91083e-14
1.57781e-18
1.29082e-18
4.91089e-14
-3.3994e-19
-4.14016e-19
4.91086e-14
3.87853e-19
3.19079e-19
4.91088e-14
-3.47165e-20
-1.70319e-19
4.91087e-14
1.56936e-19
1.86566e-19
4.9109e-14
-6.37445e-20
-1.83262e-19
4.9109e-14
5.49842e-20
1.24805e-19
4.91093e-14
-1.07916e-19
-1.88445e-19
4.91093e-14
-2.86164e-20
5.26848e-20
4.91096e-14
-1.40266e-19
-1.69262e-19
4.91098e-14
-1.20173e-19
-2.10219e-20
4.91101e-14
-1.48338e-19
-2.0246e-19
4.91098e-14
1.21331e-19
2.34966e-19
4.911e-14
-3.32394e-20
-1.82601e-19
4.91097e-14
2.2533e-19
2.45996e-19
4.91096e-14
7.84343e-20
-1.64499e-20
4.91095e-14
9.81756e-20
1.50265e-19
4.91095e-14
1.25439e-20
-1.09621e-19
4.91093e-14
1.61457e-19
2.66151e-19
4.91096e-14
-1.85874e-19
-3.28974e-19
4.91094e-14
1.26507e-19
3.00622e-19
4.91099e-14
-2.29474e-19
-4.36584e-19
4.91094e-14
2.32207e-19
4.69761e-19
4.911e-14
-2.64301e-19
-5.34009e-19
4.91095e-14
1.95891e-19
4.7177e-19
4.91099e-14
-1.87268e-19
-4.24114e-19
4.91098e-14
-4.16719e-20
1.88955e-19
4.91102e-14
-1.38544e-19
-3.15918e-19
4.91098e-14
3.63801e-20
3.63472e-19
4.91102e-14
2.48047e-21
-3.61737e-19
4.91098e-14
2.14443e-19
3.67406e-19
4.911e-14
9.15457e-20
-2.11283e-19
4.91094e-14
2.96486e-19
5.21539e-19
4.91099e-14
-1.55306e-19
-5.10832e-19
4.91093e-14
3.49402e-19
6.20686e-19
4.91098e-14
-1.83325e-19
-4.98508e-19
4.91092e-14
3.09313e-19
5.19116e-19
4.91096e-14
-1.15491e-19
-3.61186e-19
4.91091e-14
2.31891e-19
3.94691e-19
4.91094e-14
-7.0121e-20
-2.97425e-19
4.9109e-14
2.69597e-19
4.16109e-19
4.91093e-14
-1.37903e-19
-3.5373e-19
4.91089e-14
2.19422e-19
3.94576e-19
4.91093e-14
-1.79088e-19
-3.74198e-19
4.9109e-14
7.72166e-20
2.93411e-19
4.91093e-14
-9.77568e-20
-3.04726e-19
4.9109e-14
9.43471e-20
3.01866e-19
4.91093e-14
-1.00968e-19
-3.06626e-19
4.9109e-14
1.10247e-19
3.23557e-19
4.91093e-14
-1.24813e-19
-3.32482e-19
4.91089e-14
1.89687e-19
3.94091e-19
4.91093e-14
-2.20535e-19
-3.96924e-19
4.91089e-14
1.41034e-19
3.61368e-19
4.91094e-14
-2.63094e-19
-4.04258e-19
4.91091e-14
1.04446e-20
2.54531e-19
4.91095e-14
-1.96847e-19
-3.5089e-19
4.91092e-14
6.06437e-20
3.01509e-19
4.91096e-14
-2.2592e-19
-4.00249e-19
4.91093e-14
8.50307e-20
3.44393e-19
4.91097e-14
-2.31633e-19
-4.04814e-19
4.91094e-14
5.66814e-20
3.02188e-19
4.91098e-14
-2.38602e-19
-3.5506e-19
4.91097e-14
-5.26733e-20
1.60429e-19
4.91101e-14
-2.71235e-19
-3.63439e-19
4.91099e-14
-4.81653e-20
1.9213e-19
4.91102e-14
-1.05263e-19
-2.65968e-19
4.911e-14
7.7307e-20
2.17631e-19
4.91101e-14
-3.18722e-20
-1.34504e-19
4.911e-14
9.38681e-21
1.27037e-19
4.91102e-14
-1.06023e-19
-2.12136e-19
4.911e-14
3.1132e-20
1.50901e-19
4.91102e-14
-6.61043e-20
-1.59985e-19
4.911e-14
1.30999e-19
2.0315e-19
4.91101e-14
-6.82704e-20
-1.16008e-19
4.911e-14
6.89263e-20
1.04133e-19
4.91101e-14
-1.03319e-19
-1.38586e-19
4.911e-14
5.09876e-20
7.7979e-20
4.911e-14
7.25564e-21
-3.6307e-20
4.91097e-14
1.7277e-19
1.91117e-19
4.91097e-14
2.25958e-20
-2.49375e-20
4.91095e-14
1.10021e-19
1.36456e-19
4.91096e-14
-1.84462e-20
-7.35377e-20
4.91095e-14
2.9849e-21
5.60126e-20
4.91096e-14
-1.38932e-21
-7.41235e-20
4.91095e-14
2.39243e-20
1.00246e-19
4.91096e-14
-2.77382e-20
-1.10948e-19
4.91095e-14
6.23523e-20
1.49001e-19
4.91097e-14
-1.07273e-19
-1.81552e-19
4.91096e-14
1.17106e-20
9.5751e-20
4.91099e-14
-1.60799e-19
-2.33324e-19
4.91099e-14
-3.01444e-20
6.7754e-20
4.91101e-14
-3.3795e-20
-1.2272e-19
4.91098e-14
1.03139e-19
1.84513e-19
4.911e-14
-4.27807e-20
-1.15757e-19
4.91098e-14
4.92059e-20
1.1984e-19
4.911e-14
-9.72409e-20
-1.78353e-19
4.91099e-14
2.5391e-20
1.12986e-19
4.911e-14
1.86594e-20
-8.3908e-20
4.91096e-14
1.72184e-19
2.4336e-19
4.91097e-14
3.5844e-21
-8.73982e-20
4.91094e-14
1.25637e-19
2.02189e-19
4.91096e-14
-6.3201e-20
-1.6159e-19
4.91095e-14
3.29525e-20
1.27105e-19
4.91096e-14
-4.43663e-20
-1.39224e-19
4.91095e-14
3.17486e-20
1.23661e-19
4.91096e-14
-4.02998e-20
-1.18428e-19
4.91095e-14
4.91831e-20
1.24264e-19
4.91097e-14
-1.07499e-19
-1.62267e-19
4.91097e-14
-7.00735e-21
5.68338e-20
4.91099e-14
-1.613e-19
-2.03691e-19
4.91099e-14
-3.89853e-20
3.20276e-20
4.91101e-14
-4.4234e-20
-9.44842e-20
4.91099e-14
9.14709e-20
1.48124e-19
4.911e-14
-4.2915e-20
-7.9112e-20
4.91099e-14
2.69622e-20
7.47294e-20
4.91101e-14
-7.52286e-20
-1.16262e-19
4.911e-14
-2.62322e-20
2.24688e-20
4.91101e-14
1.44983e-20
-2.92353e-20
4.91099e-14
7.03111e-20
1.21437e-19
4.911e-14
-2.24619e-20
-5.95598e-20
4.91099e-14
4.34259e-20
9.05146e-20
4.91101e-14
-1.0393e-19
-1.60538e-19
4.91099e-14
6.88987e-20
1.32422e-19
4.91099e-14
6.13832e-20
-4.86533e-20
4.91096e-14
2.17483e-19
2.49377e-19
4.91095e-14
8.49012e-20
-1.24938e-20
4.91093e-14
7.83993e-20
1.14695e-19
4.91092e-14
1.06578e-19
2.13307e-20
4.91092e-14
1.95664e-20
4.52382e-20
4.91091e-14
6.37805e-20
6.28937e-20
4.91094e-14
-2.09509e-19
-2.38659e-19
4.91091e-14
1.39334e-19
2.25978e-19
4.91094e-14
-1.02062e-19
-2.01427e-19
4.91094e-14
-1.17016e-19
-1.33351e-21
4.91094e-14
1.59103e-20
-2.02095e-20
4.91097e-14
-2.60512e-19
-1.4347e-19
4.91098e-14
-5.48708e-20
-8.27483e-20
4.91097e-14
3.27345e-20
6.71355e-20
4.91093e-14
2.69818e-19
1.48021e-19
4.91092e-14
8.55782e-21
4.80433e-20
4.91091e-14
1.17951e-19
-6.81905e-21
4.91088e-14
1.38146e-19
2.27969e-19
4.9109e-14
-8.56215e-20
-1.79274e-19
4.91087e-14
1.17618e-19
1.50051e-19
4.91088e-14
-8.17778e-20
-5.69741e-20
4.91089e-14
-3.1517e-20
-8.29451e-20
4.91088e-14
-6.49463e-20
6.57305e-20
4.91089e-14
-1.79675e-20
-1.60599e-19
4.91086e-14
1.40175e-19
2.80783e-19
4.91089e-14
-1.37708e-19
-2.87097e-19
4.91086e-14
1.01856e-19
2.74721e-19
4.91089e-14
-1.79856e-19
-3.0745e-19
4.91087e-14
8.58059e-21
2.06234e-19
4.91088e-14
-7.76151e-20
-2.40323e-19
4.91082e-14
1.64056e-19
3.60192e-19
4.91084e-14
-1.69436e-19
-3.47263e-19
4.91079e-14
1.77092e-19
4.04771e-19
4.91082e-14
-1.86796e-19
-3.81206e-19
4.91078e-14
1.24712e-19
3.44743e-19
4.91081e-14
-1.47698e-19
-3.37886e-19
4.91077e-14
1.03188e-19
3.36195e-19
4.9108e-14
-1.49764e-19
-3.6144e-19
4.91076e-14
1.23905e-19
3.75375e-19
4.91079e-14
-1.6893e-19
-4.0466e-19
4.91076e-14
1.50148e-19
4.09959e-19
4.91079e-14
-1.74329e-19
-4.23509e-19
4.91075e-14
1.65235e-19
4.2213e-19
4.91079e-14
-1.68467e-19
-4.25227e-19
4.91076e-14
1.74527e-19
4.25245e-19
4.9108e-14
-1.60236e-19
-4.22013e-19
4.91076e-14
1.80829e-19
4.24832e-19
4.9108e-14
-1.52301e-19
-4.15688e-19
4.91077e-14
1.82843e-19
4.19499e-19
4.91081e-14
-1.45194e-19
-4.05469e-19
4.91078e-14
1.78418e-19
4.06597e-19
4.91082e-14
-1.39008e-19
-3.9009e-19
4.91079e-14
1.66066e-19
3.83847e-19
4.91083e-14
-1.35785e-19
-3.71378e-19
4.91081e-14
1.48599e-19
3.54544e-19
4.91085e-14
-1.39074e-19
-3.52753e-19
4.91083e-14
1.28595e-19
3.20532e-19
4.91086e-14
-1.4554e-19
-3.34163e-19
4.91084e-14
1.48389e-19
3.29007e-19
4.91089e-14
-2.32501e-19
-4.13908e-19
4.91087e-14
1.53158e-19
3.62187e-19
4.91093e-14
-2.79233e-19
-4.51435e-19
-3.78949e-20
2.03502e-19
6.91238e-14
5.5429e-14
1.14681e-13
6.24602e-14
4.37224e-15
7.46051e-15
6.48618e-14
-1.38571e-15
-2.82162e-15
6.32638e-14
9.88079e-16
1.82922e-15
6.41919e-14
-5.75031e-16
-1.06296e-15
6.36508e-14
3.38285e-16
6.18679e-16
6.39606e-14
-1.97426e-16
-3.54653e-16
6.37885e-14
1.13031e-16
1.97348e-16
6.38778e-14
-6.12089e-17
-1.03253e-16
6.38339e-14
3.23599e-17
5.13755e-17
6.3853e-14
-1.52533e-17
-2.29341e-17
6.38452e-14
7.0762e-18
9.66233e-18
6.38482e-14
-2.61911e-18
-3.48753e-18
6.38474e-14
1.34446e-18
1.40905e-18
6.38479e-14
-1.9803e-19
-3.62463e-19
6.38477e-14
3.53203e-19
3.92474e-19
6.38479e-14
1.8708e-20
-1.59051e-19
6.38479e-14
1.41861e-19
2.27536e-19
6.38482e-14
-2.86993e-20
-2.02968e-19
6.38481e-14
3.70786e-20
1.3437e-19
6.38485e-14
-8.32324e-20
-2.30561e-19
6.38485e-14
-4.91014e-20
3.38e-20
6.38488e-14
-1.27933e-19
-2.24966e-19
6.38489e-14
-1.44112e-19
-7.69804e-20
6.38492e-14
-1.33097e-19
-2.50857e-19
6.3849e-14
9.66168e-20
2.63788e-19
6.38492e-14
1.37581e-21
-1.76249e-19
6.38489e-14
2.15929e-19
3.21786e-19
6.38488e-14
1.0553e-19
2.40391e-20
6.38487e-14
7.98822e-20
1.85895e-19
6.38488e-14
4.60906e-20
-9.58574e-20
6.38485e-14
1.27932e-19
3.16381e-19
6.38489e-14
-1.43108e-19
-3.82365e-19
6.38486e-14
7.5681e-20
3.24278e-19
6.38491e-14
-1.71162e-19
-4.99529e-19
6.38486e-14
1.63945e-19
5.33e-19
6.38492e-14
-1.90037e-19
-6.13067e-19
6.38487e-14
1.13911e-19
5.37167e-19
6.38492e-14
-1.17764e-19
-4.93921e-19
6.3849e-14
-1.13725e-19
1.80142e-19
6.38494e-14
-8.63214e-20
-3.7575e-19
6.3849e-14
-2.16674e-20
3.52177e-19
6.38494e-14
6.48822e-20
-3.3011e-19
6.3849e-14
1.60867e-19
4.6169e-19
6.38492e-14
1.76434e-19
-1.75594e-19
6.38487e-14
2.22495e-19
6.3704e-19
6.38492e-14
-5.66982e-20
-5.54819e-19
6.38486e-14
2.70371e-19
7.33454e-19
6.38491e-14
-9.88545e-20
-5.37294e-19
6.38485e-14
2.43512e-19
6.15432e-19
6.38489e-14
-4.87392e-20
-3.75937e-19
6.38485e-14
1.7844e-19
4.66444e-19
6.38488e-14
-1.117e-20
-2.95741e-19
6.38483e-14
2.17208e-19
5.06079e-19
6.38487e-14
-7.83108e-20
-3.82123e-19
6.38483e-14
1.64919e-19
4.61579e-19
6.38487e-14
-1.20835e-19
-4.3155e-19
6.38484e-14
2.28625e-20
3.06942e-19
6.38487e-14
-4.23483e-20
-3.35796e-19
6.38484e-14
3.89817e-20
3.32062e-19
6.38487e-14
-4.61529e-20
-3.37693e-19
6.38484e-14
5.26042e-20
3.56777e-19
6.38487e-14
-6.9847e-20
-3.62758e-19
6.38482e-14
1.28803e-19
4.52801e-19
6.38486e-14
-1.66048e-19
-4.62556e-19
6.38483e-14
8.03587e-20
3.92638e-19
6.38487e-14
-2.12655e-19
-4.95861e-19
6.38484e-14
-4.76321e-20
2.34186e-19
6.38488e-14
-1.48328e-19
-4.18831e-19
6.38485e-14
-2.62376e-22
3.07301e-19
6.38489e-14
-1.73006e-19
-4.77588e-19
6.38485e-14
1.8779e-20
3.60126e-19
6.38489e-14
-1.78269e-19
-4.84889e-19
6.38486e-14
-9.55231e-21
3.11572e-19
6.3849e-14
-1.9425e-19
-4.46117e-19
6.38489e-14
-1.08634e-19
1.25796e-19
6.38493e-14
-2.3771e-19
-4.68505e-19
6.38491e-14
-9.65362e-20
1.4842e-19
6.38494e-14
-6.9633e-20
-2.91907e-19
6.38491e-14
4.05022e-20
2.46195e-19
6.38492e-14
6.30266e-22
-1.48459e-19
6.38491e-14
-2.62035e-20
1.33099e-19
6.38493e-14
-7.61625e-20
-2.54305e-19
6.38492e-14
-3.29206e-21
1.57429e-19
6.38494e-14
-3.87833e-20
-1.74441e-19
6.38491e-14
1.10395e-19
2.43538e-19
6.38492e-14
-5.21424e-20
-1.26634e-19
6.38491e-14
5.47874e-20
1.17128e-19
6.38493e-14
-9.2742e-20
-1.66533e-19
6.38492e-14
3.6206e-20
9.08233e-20
6.38492e-14
2.45917e-20
-2.44068e-20
6.38489e-14
1.66163e-19
2.50661e-19
6.38489e-14
3.69693e-20
-2.82115e-21
6.38487e-14
1.00786e-19
1.73159e-19
6.38487e-14
-3.46217e-21
-7.7668e-20
6.38487e-14
-9.9986e-21
5.69547e-20
6.38488e-14
1.58132e-20
-7.77241e-20
6.38487e-14
5.00238e-21
1.11807e-19
6.38488e-14
-6.2171e-21
-1.203e-19
6.38486e-14
3.75197e-20
1.69693e-19
6.38488e-14
-8.47394e-20
-2.17877e-19
6.38488e-14
-1.40838e-20
9.05404e-20
6.38491e-14
-1.4216e-19
-2.91862e-19
6.38491e-14
-5.672e-20
4.76639e-20
6.38492e-14
-9.19877e-21
-1.30213e-19
6.3849e-14
8.22414e-20
2.20465e-19
6.38491e-14
-1.97712e-20
-1.25921e-19
6.3849e-14
2.62471e-20
1.33406e-19
6.38492e-14
-7.68071e-20
-2.11596e-19
6.38491e-14
1.10599e-21
1.15935e-19
6.38491e-14
4.58161e-20
-6.68972e-20
6.38488e-14
1.53463e-19
3.06012e-19
6.38488e-14
3.13586e-20
-7.57266e-20
6.38486e-14
1.02071e-19
2.45591e-19
6.38488e-14
-3.57177e-20
-1.81441e-19
6.38486e-14
7.50062e-21
1.3746e-19
6.38488e-14
-2.06734e-20
-1.55562e-19
6.38487e-14
7.56905e-21
1.36026e-19
6.38488e-14
-2.03778e-20
-1.29443e-19
6.38486e-14
2.59659e-20
1.40021e-19
6.38488e-14
-9.24615e-20
-1.95247e-19
6.38488e-14
-2.87173e-20
4.51943e-20
6.38491e-14
-1.5121e-19
-2.61236e-19
6.38491e-14
-6.07411e-20
6.75717e-21
6.38492e-14
-2.62333e-20
-1.05256e-19
6.38491e-14
7.93952e-20
1.76439e-19
6.38491e-14
-2.75408e-20
-9.12922e-20
6.38491e-14
1.51675e-20
7.5941e-20
6.38492e-14
-6.35517e-20
-1.47384e-19
6.38492e-14
-4.04086e-20
6.54552e-21
6.38492e-14
3.28596e-20
-2.48552e-20
6.38491e-14
6.19501e-20
1.44419e-19
6.38492e-14
-5.37808e-21
-6.75086e-20
6.38491e-14
3.11244e-20
9.57895e-20
6.38492e-14
-8.90461e-20
-1.94163e-19
6.38491e-14
4.81911e-20
1.51305e-19
6.38491e-14
9.29725e-20
-1.65031e-20
6.38488e-14
2.09051e-19
3.32922e-19
6.38487e-14
1.06469e-19
2.76436e-20
6.38485e-14
6.66664e-20
1.56248e-19
6.38484e-14
1.21574e-19
5.71236e-20
6.38484e-14
1.52304e-20
7.03846e-20
6.38483e-14
5.71348e-20
7.1004e-20
6.38486e-14
-1.96714e-19
-3.00151e-19
6.38483e-14
1.1091e-19
2.6805e-19
6.38486e-14
-7.30554e-20
-2.43453e-19
6.38486e-14
-1.52031e-19
-2.81927e-20
6.38486e-14
2.84165e-20
-4.31928e-20
6.38488e-14
-2.90653e-19
-2.15432e-19
6.3849e-14
-6.4015e-20
-9.74495e-20
6.38488e-14
3.12294e-20
8.45343e-20
6.38485e-14
2.91053e-19
2.3582e-19
6.38484e-14
-1.48564e-20
9.18998e-20
6.38483e-14
1.44829e-19
3.29814e-20
6.3848e-14
1.04292e-19
2.95467e-19
6.38481e-14
-6.66043e-20
-1.95027e-19
6.38479e-14
1.00899e-19
1.87032e-19
6.38479e-14
-9.02013e-20
-6.85696e-20
6.3848e-14
-2.27549e-20
-1.07013e-19
6.3848e-14
-9.46247e-20
4.94644e-20
6.38481e-14
1.02e-20
-1.62226e-19
6.38477e-14
9.50713e-20
3.38258e-19
6.3848e-14
-9.79807e-20
-3.26678e-19
6.38477e-14
5.05552e-20
3.06378e-19
6.3848e-14
-1.40338e-19
-3.7077e-19
6.38478e-14
-4.08407e-20
2.03255e-19
6.38479e-14
-5.24187e-20
-2.40335e-19
6.38473e-14
8.52166e-20
4.41453e-19
6.38475e-14
-1.32421e-19
-3.75632e-19
6.38469e-14
9.39104e-20
4.79381e-19
6.38472e-14
-1.36751e-19
-4.29618e-19
6.38468e-14
5.79125e-20
3.89299e-19
6.38471e-14
-1.02011e-19
-3.77553e-19
6.38467e-14
3.16339e-20
3.80898e-19
6.3847e-14
-9.68853e-20
-4.07138e-19
6.38466e-14
4.95651e-20
4.25714e-19
6.38469e-14
-1.07188e-19
-4.59643e-19
6.38465e-14
7.59028e-20
4.64875e-19
6.38469e-14
-1.06123e-19
-4.82037e-19
6.38465e-14
9.37626e-20
4.78182e-19
6.38469e-14
-9.56397e-20
-4.83962e-19
6.38465e-14
1.06845e-19
4.81331e-19
6.38469e-14
-8.40902e-20
-4.80174e-19
6.38466e-14
1.17057e-19
4.80463e-19
6.3847e-14
-7.4283e-20
-4.7288e-19
6.38467e-14
1.22901e-19
4.73632e-19
6.38471e-14
-6.69752e-20
-4.61572e-19
6.38468e-14
1.22366e-19
4.57386e-19
6.38472e-14
-6.24249e-20
-4.45263e-19
6.38469e-14
1.14251e-19
4.28621e-19
6.38474e-14
-6.26123e-20
-4.26556e-19
6.38471e-14
1.01241e-19
3.91229e-19
6.38475e-14
-7.052e-20
-4.09488e-19
6.38473e-14
8.49836e-20
3.46681e-19
6.38477e-14
-8.20788e-20
-3.87615e-19
6.38475e-14
1.02191e-19
3.57245e-19
6.3848e-14
-1.63725e-19
-5.01307e-19
6.38478e-14
1.07071e-19
3.84107e-19
6.38484e-14
-2.12085e-19
-5.69961e-19
-7.81012e-20
1.67358e-19
7.68031e-14
2.94376e-14
1.15888e-13
7.10395e-14
2.44113e-15
7.69503e-15
7.32764e-14
-7.27239e-16
-2.89624e-15
7.18379e-14
5.37124e-16
1.88959e-15
7.26742e-14
-3.12508e-16
-1.09955e-15
7.21876e-14
1.84255e-16
6.41145e-16
7.24653e-14
-1.0779e-16
-3.68424e-16
7.23119e-14
6.18821e-17
2.05597e-16
7.23908e-14
-3.35526e-17
-1.07591e-16
7.23526e-14
1.77761e-17
5.3702e-17
7.2369e-14
-8.40658e-18
-2.38257e-17
7.23626e-14
3.84344e-18
1.00649e-17
7.2365e-14
-1.37848e-18
-3.54075e-18
7.23645e-14
7.73525e-19
1.46768e-18
7.23649e-14
-6.90427e-20
-3.15606e-19
7.23648e-14
2.20565e-19
4.24709e-19
7.23651e-14
3.85468e-20
-1.39012e-19
7.2365e-14
9.7502e-20
2.36835e-19
7.23653e-14
4.67298e-21
-2.04387e-19
7.23653e-14
3.37955e-20
1.21923e-19
7.23656e-14
-3.22399e-20
-2.47385e-19
7.23656e-14
-2.0642e-20
3.20863e-21
7.23659e-14
-6.44732e-20
-2.53772e-19
7.2366e-14
-8.10683e-20
-1.29415e-19
7.23663e-14
-7.02823e-20
-2.76508e-19
7.2366e-14
5.94804e-20
2.68524e-19
7.23662e-14
8.28406e-21
-1.5929e-19
7.2366e-14
1.26473e-19
3.64265e-19
7.2366e-14
6.76716e-20
6.35036e-20
7.23658e-14
4.37647e-20
1.93262e-19
7.23659e-14
3.34212e-20
-6.73195e-20
7.23656e-14
6.95151e-20
3.2718e-19
7.2366e-14
-7.28945e-20
-3.9495e-19
7.23657e-14
3.88381e-20
3.09925e-19
7.23662e-14
-8.82277e-20
-5.08674e-19
7.23658e-14
8.68333e-20
5.31668e-19
7.23663e-14
-9.90437e-20
-6.17584e-19
7.23658e-14
5.11978e-20
5.2143e-19
7.23663e-14
-5.60633e-20
-4.84241e-19
7.23661e-14
-8.06163e-20
1.13919e-19
7.23665e-14
-4.35256e-20
-3.63647e-19
7.23661e-14
-8.62612e-21
3.05227e-19
7.23665e-14
3.88705e-20
-2.74266e-19
7.23661e-14
9.20535e-20
4.6177e-19
7.23664e-14
1.2466e-19
-9.21929e-20
7.23659e-14
1.22515e-19
6.43854e-19
7.23664e-14
-1.01227e-20
-5.21042e-19
7.23658e-14
1.50707e-19
7.48818e-19
7.23663e-14
-4.22112e-20
-5.15163e-19
7.23658e-14
1.33488e-19
6.33016e-19
7.23662e-14
-1.64047e-20
-3.49837e-19
7.23658e-14
9.68832e-20
4.75376e-19
7.23661e-14
3.48168e-21
-2.64799e-19
7.23656e-14
1.1884e-19
5.26264e-19
7.2366e-14
-3.48938e-20
-3.68132e-19
7.23656e-14
8.90556e-20
4.67975e-19
7.2366e-14
-5.92554e-20
-4.29574e-19
7.23657e-14
6.36163e-21
2.80468e-19
7.2366e-14
-1.58433e-20
-3.15556e-19
7.23657e-14
1.3671e-20
3.1127e-19
7.2366e-14
-1.95038e-20
-3.17434e-19
7.23657e-14
2.00467e-20
3.38748e-19
7.2366e-14
-3.52173e-20
-3.45589e-19
7.23656e-14
6.16281e-20
4.52598e-19
7.2366e-14
-9.14823e-20
-4.67732e-19
7.23656e-14
3.40396e-20
3.80277e-19
7.2366e-14
-1.17778e-19
-5.15378e-19
7.23657e-14
-3.90488e-20
1.92068e-19
7.2366e-14
-8.16512e-20
-4.23355e-19
7.23657e-14
-1.31212e-20
2.76566e-19
7.23661e-14
-9.58377e-20
-4.85808e-19
7.23657e-14
-3.011e-21
3.31868e-19
7.23661e-14
-9.98682e-20
-4.93189e-19
7.23658e-14
-2.29083e-20
2.79178e-19
7.23661e-14
-1.0706e-19
-4.64773e-19
7.2366e-14
-7.64984e-20
7.16235e-20
7.23663e-14
-1.37323e-19
-5.0127e-19
7.23661e-14
-6.07975e-20
9.67123e-20
7.23664e-14
-4.15183e-20
-2.82544e-19
7.23662e-14
1.82163e-20
2.35345e-19
7.23663e-14
5.76069e-21
-1.28668e-19
7.23662e-14
-2.38445e-20
1.08903e-19
7.23664e-14
-4.0545e-20
-2.55922e-19
7.23662e-14
-8.90721e-21
1.38979e-19
7.23664e-14
-1.90392e-20
-1.67139e-19
7.23661e-14
6.03257e-20
2.59094e-19
7.23662e-14
-2.84854e-20
-1.2743e-19
7.23661e-14
2.80869e-20
1.21579e-19
7.23663e-14
-5.28988e-20
-1.82181e-19
7.23662e-14
1.5845e-20
9.25068e-20
7.23662e-14
1.62338e-20
-7.95125e-21
7.2366e-14
9.11878e-20
2.90206e-19
7.23659e-14
2.12353e-20
1.67401e-20
7.23658e-14
5.31372e-20
1.94604e-19
7.23658e-14
1.6113e-21
-7.19611e-20
7.23658e-14
-6.85585e-21
4.68904e-20
7.23659e-14
1.21135e-20
-6.60597e-20
7.23658e-14
7.73443e-23
1.03727e-19
7.23659e-14
-3.60271e-22
-1.10461e-19
7.23657e-14
1.57533e-20
1.67363e-19
7.23659e-14
-4.09698e-20
-2.29017e-19
7.23659e-14
-1.07245e-20
7.08098e-20
7.23662e-14
-7.6389e-20
-3.18764e-19
7.23661e-14
-3.37571e-20
1.68122e-20
7.23663e-14
-5.35654e-22
-1.19434e-19
7.23661e-14
4.5323e-20
2.28787e-19
7.23662e-14
-6.90643e-21
-1.1733e-19
7.23661e-14
1.03967e-20
1.26619e-19
7.23662e-14
-4.24496e-20
-2.18681e-19
7.23661e-14
-3.42823e-21
1.02597e-19
7.23662e-14
2.82418e-20
-3.88509e-20
7.23659e-14
8.34197e-20
3.34996e-19
7.23659e-14
2.10049e-20
-5.05793e-20
7.23657e-14
5.13551e-20
2.59718e-19
7.23659e-14
-1.50678e-20
-1.76674e-19
7.23658e-14
8.36056e-22
1.25212e-19
7.23659e-14
-8.82201e-21
-1.4816e-19
7.23658e-14
-1.21177e-22
1.26169e-19
7.23659e-14
-9.58734e-21
-1.22687e-19
7.23657e-14
8.78994e-21
1.35914e-19
7.23659e-14
-4.90685e-20
-2.10079e-19
7.23659e-14
-1.96734e-20
2.47982e-20
7.23662e-14
-8.54338e-20
-2.93319e-19
7.23661e-14
-3.76712e-20
-2.11404e-20
7.23663e-14
-9.67341e-21
-1.02738e-19
7.23661e-14
4.75367e-20
1.87608e-19
7.23662e-14
-1.17292e-20
-8.9135e-20
7.23661e-14
7.99492e-21
7.1057e-20
7.23662e-14
-3.56635e-20
-1.57316e-19
7.23662e-14
-2.68536e-20
-1.09026e-20
7.23663e-14
2.61639e-20
-9.54557e-21
7.23661e-14
3.91695e-20
1.52747e-19
7.23662e-14
2.22438e-21
-6.00456e-20
7.23661e-14
1.69667e-20
9.40756e-20
7.23663e-14
-5.18772e-20
-2.06694e-19
7.23661e-14
2.13928e-20
1.53044e-19
7.23662e-14
6.24924e-20
1.99223e-20
7.23659e-14
1.19359e-19
3.79965e-19
7.23658e-14
6.28797e-20
6.57818e-20
7.23657e-14
3.17463e-20
1.70564e-19
7.23656e-14
7.00955e-20
9.34052e-20
7.23655e-14
4.698e-21
7.77091e-20
7.23655e-14
3.10322e-20
7.81583e-20
7.23657e-14
-1.14588e-19
-3.3628e-19
7.23655e-14
6.06159e-20
2.77882e-19
7.23657e-14
-3.68768e-20
-2.45739e-19
7.23657e-14
-9.91225e-20
-7.95222e-20
7.23658e-14
1.8966e-20
-2.9606e-20
7.23659e-14
-1.82e-19
-2.96308e-19
7.2366e-14
-6.01534e-20
-1.00182e-19
7.23659e-14
2.79144e-20
8.31928e-20
7.23656e-14
1.69229e-19
3.21809e-19
7.23655e-14
-2.50092e-20
8.57007e-20
7.23654e-14
8.1146e-20
8.78648e-20
7.23651e-14
4.52022e-20
3.10615e-19
7.23653e-14
-4.58265e-20
-1.92659e-19
7.23651e-14
4.83703e-20
2.06387e-19
7.23651e-14
-6.19381e-20
-8.61696e-20
7.23652e-14
-1.61292e-20
-1.07366e-19
7.23651e-14
-6.46024e-20
1.65295e-20
7.23652e-14
3.91537e-21
-1.40246e-19
7.23649e-14
3.853e-20
3.45388e-19
7.23651e-14
-5.49989e-20
-3.24633e-19
7.23648e-14
1.42563e-20
2.9575e-19
7.23651e-14
-7.716e-20
-3.80807e-19
7.23649e-14
-3.5632e-20
1.69492e-19
7.2365e-14
-5.34582e-20
-2.15117e-19
7.23644e-14
8.22849e-22
4.48807e-19
7.23646e-14
-9.53193e-20
-3.64684e-19
7.2364e-14
1.12252e-20
4.80137e-19
7.23643e-14
-8.31992e-20
-4.23377e-19
7.23639e-14
1.26089e-20
3.73808e-19
7.23642e-14
-6.7766e-20
-3.62315e-19
7.23638e-14
-6.13285e-21
3.59328e-19
7.2364e-14
-6.06973e-20
-3.89538e-19
7.23636e-14
8.02638e-21
4.03635e-19
7.2364e-14
-6.11217e-20
-4.43221e-19
7.23636e-14
2.8277e-20
4.44783e-19
7.23639e-14
-5.50364e-20
-4.65334e-19
7.23635e-14
4.38321e-20
4.59532e-19
7.23639e-14
-4.38297e-20
-4.65847e-19
7.23636e-14
5.64989e-20
4.63984e-19
7.2364e-14
-3.26886e-20
-4.60883e-19
7.23636e-14
6.68439e-20
4.64534e-19
7.23641e-14
-2.3527e-20
-4.5304e-19
7.23637e-14
7.37379e-20
4.58888e-19
7.23642e-14
-1.6841e-20
-4.42053e-19
7.23639e-14
7.60788e-20
4.43141e-19
7.23643e-14
-1.26385e-20
-4.27186e-19
7.2364e-14
7.34056e-20
4.13848e-19
7.23645e-14
-1.18612e-20
-4.11672e-19
7.23642e-14
6.74437e-20
3.75315e-19
7.23646e-14
-1.62702e-20
-3.99693e-19
7.23644e-14
5.89038e-20
3.28405e-19
7.23648e-14
-2.46388e-20
-3.8126e-19
7.23646e-14
6.29483e-20
3.45294e-19
7.23651e-14
-6.14652e-20
-5.19998e-19
7.23649e-14
7.23359e-20
3.68427e-19
7.23655e-14
-9.32869e-20
-6.0156e-19
-3.38293e-20
1.10972e-19
8.02966e-14
-1.85826e-19
1.15841e-13
7.4994e-14
-4.11036e-20
7.74404e-15