/*--------------------------------*- C++ -*----------------------------------*\
  =========                 |
  \\      /  F ield         | OpenFOAM: The Open Source CFD Toolbox
   \\    /   O peration     | Website:  https://openfoam.org
    \\  /    A nd           | Version:  13
     \\/     M anipulation  |
\*---------------------------------------------------------------------------*/
FoamFile
{
    format      ascii;
    class       volVectorField;
    location    "29";
    object      U;
}
// * * * * * * * * * * * * * * * * * * * * * * * * * * * * * * * * * * * * * //

dimensions      [0 1 -1 0 0 0 0];

internalField   nonuniform List<vector> 
20000
(
(0.000219046 3.92092e-05 3.92092e-05)
(0.000279425 2.30018e-06 2.30018e-06)
(0.000223148 -1.07394e-06 -1.07394e-06)
(0.00024967 6.34148e-07 6.34151e-07)
(0.000234186 -3.68817e-07 -3.6882e-07)
(0.00024319 2.14524e-07 2.14543e-07)
(0.000237927 -1.23658e-07 -1.23673e-07)
(0.000240998 6.98132e-08 6.98171e-08)
(0.00023922 -3.79559e-08 -3.79566e-08)
(0.000240212 1.97671e-08 1.97675e-08)
(0.000239676 -9.65755e-09 -9.65721e-09)
(0.000239945 4.46123e-09 4.45958e-09)
(0.000239818 -1.89544e-09 -1.89488e-09)
(0.000239873 8.07494e-10 8.0662e-10)
(0.000239852 -2.93567e-10 -2.93889e-10)
(0.000239859 1.60032e-10 1.60142e-10)
(0.000239857 -6.9042e-11 -6.98203e-11)
(0.000239858 6.81459e-11 6.80903e-11)
(0.000239858 -4.67823e-11 -4.73616e-11)
(0.000239859 4.7059e-11 4.70772e-11)
(0.00023986 -4.17317e-11 -4.26929e-11)
(0.000239861 2.92194e-11 2.89213e-11)
(0.000239862 -3.48586e-11 -3.55115e-11)
(0.000239863 1.4481e-11 1.40008e-11)
(0.000239865 -4.97918e-11 -5.01351e-11)
(0.000239865 6.57767e-11 6.55232e-11)
(0.000239865 -5.6805e-11 -5.64847e-11)
(0.000239865 6.23878e-11 6.28743e-11)
(0.000239863 -2.21941e-11 -2.20589e-11)
(0.000239862 3.97292e-11 3.98702e-11)
(0.000239862 -4.13921e-11 -4.13456e-11)
(0.000239861 7.63812e-11 7.65859e-11)
(0.000239862 -9.38771e-11 -9.41738e-11)
(0.000239861 1.00149e-10 1.0003e-10)
(0.000239863 -1.25672e-10 -1.25863e-10)
(0.000239862 1.40717e-10 1.40742e-10)
(0.000239864 -1.50592e-10 -1.50748e-10)
(0.000239863 1.35773e-10 1.35897e-10)
(0.000239863 -1.15342e-10 -1.15667e-10)
(0.000239864 6.89544e-11 6.87759e-11)
(0.000239866 -8.64659e-11 -8.6808e-11)
(0.000239865 1.03303e-10 1.01805e-10)
(0.000239865 -1.03932e-10 -1.02471e-10)
(0.000239866 9.95095e-11 9.99971e-11)
(0.000239864 -7.81778e-11 -7.80004e-11)
(0.000239863 1.40195e-10 1.40414e-10)
(0.000239863 -1.49585e-10 -1.49553e-10)
(0.000239863 1.73876e-10 1.74096e-10)
(0.000239861 -1.5293e-10 -1.5292e-10)
(0.000239862 1.48808e-10 1.49066e-10)
(0.00023986 -1.18179e-10 -1.18104e-10)
(0.000239861 1.15611e-10 1.15852e-10)
(0.00023986 -1.00886e-10 -1.00765e-10)
(0.000239859 1.17913e-10 1.18396e-10)
(0.000239859 -1.10555e-10 -1.10757e-10)
(0.000239859 1.15846e-10 1.16019e-10)
(0.000239859 -1.06605e-10 -1.06796e-10)
(0.000239859 9.08676e-11 9.08595e-11)
(0.000239859 -8.71769e-11 -8.72758e-11)
(0.000239859 8.65747e-11 8.66685e-11)
(0.000239859 -8.91947e-11 -8.92456e-11)
(0.000239859 9.2978e-11 9.31085e-11)
(0.000239859 -1.01679e-10 -1.0166e-10)
(0.000239859 1.12368e-10 1.12752e-10)
(0.000239859 -1.18212e-10 -1.18524e-10)
(0.000239859 1.10455e-10 1.10542e-10)
(0.000239859 -1.12819e-10 -1.13118e-10)
(0.00023986 8.65166e-11 8.63845e-11)
(0.00023986 -9.87666e-11 -9.89594e-11)
(0.00023986 9.32619e-11 9.32242e-11)
(0.000239861 -1.1151e-10 -1.11679e-10)
(0.000239861 1.03226e-10 1.03214e-10)
(0.000239861 -1.13089e-10 -1.13237e-10)
(0.000239862 9.21813e-11 9.22379e-11)
(0.000239862 -9.55616e-11 -9.60052e-11)
(0.000239863 6.38022e-11 6.35774e-11)
(0.000239864 -9.11595e-11 -9.15105e-11)
(0.000239866 6.83509e-11 6.73555e-11)
(0.000239866 -7.56123e-11 -7.49246e-11)
(0.000239866 5.94054e-11 5.94766e-11)
(0.000239865 -4.28864e-11 -4.292e-11)
(0.000239866 3.96626e-11 3.96438e-11)
(0.000239866 -5.43299e-11 -5.43645e-11)
(0.000239867 4.81634e-11 4.80387e-11)
(0.000239866 -5.1721e-11 -5.15744e-11)
(0.000239866 5.45799e-11 5.47349e-11)
(0.000239865 -4.16674e-11 -4.17113e-11)
(0.000239866 3.63474e-11 3.64178e-11)
(0.000239866 -3.93097e-11 -3.93291e-11)
(0.000239866 2.75224e-11 2.79271e-11)
(0.000239866 -2.33404e-11 -2.34791e-11)
(0.000239865 4.23219e-11 4.28158e-11)
(0.000239864 -2.24176e-11 -2.23422e-11)
(0.000239863 3.29905e-11 3.33285e-11)
(0.000239863 -2.237e-11 -2.24547e-11)
(0.000239862 1.73791e-11 1.73986e-11)
(0.000239863 -1.9052e-11 -1.90866e-11)
(0.000239862 2.59161e-11 2.59805e-11)
(0.000239863 -3.20193e-11 -3.20349e-11)
(0.000239862 4.17508e-11 4.19925e-11)
(0.000239863 -4.72962e-11 -4.77311e-11)
(0.000239863 3.92621e-11 3.91476e-11)
(0.000239864 -5.3323e-11 -5.36345e-11)
(0.000239865 3.218e-11 3.20317e-11)
(0.000239866 -3.75498e-11 -3.76489e-11)
(0.000239865 4.71861e-11 4.72813e-11)
(0.000239865 -3.7988e-11 -3.80503e-11)
(0.000239865 3.82497e-11 3.82834e-11)
(0.000239865 -4.6182e-11 -4.6224e-11)
(0.000239865 3.68006e-11 3.68877e-11)
(0.000239865 -3.5518e-11 -3.53922e-11)
(0.000239864 5.60029e-11 5.64526e-11)
(0.000239863 -3.90158e-11 -3.89534e-11)
(0.000239862 5.20081e-11 5.23045e-11)
(0.000239862 -4.61478e-11 -4.6243e-11)
(0.000239862 3.81288e-11 3.81539e-11)
(0.000239862 -3.74793e-11 -3.75333e-11)
(0.000239863 3.40938e-11 3.41542e-11)
(0.000239862 -3.50923e-11 -3.51111e-11)
(0.000239862 3.65602e-11 3.67841e-11)
(0.000239863 -4.24983e-11 -4.29068e-11)
(0.000239863 2.89571e-11 2.88466e-11)
(0.000239864 -4.61429e-11 -4.64086e-11)
(0.000239865 2.37251e-11 2.39375e-11)
(0.000239866 -3.02758e-11 -3.0758e-11)
(0.000239866 3.87813e-11 3.87665e-11)
(0.000239865 -2.64715e-11 -2.65465e-11)
(0.000239865 2.54609e-11 2.54403e-11)
(0.000239865 -2.74904e-11 -2.75026e-11)
(0.000239866 1.45349e-11 1.46015e-11)
(0.000239866 -1.38257e-11 -1.39525e-11)
(0.000239866 2.99658e-11 2.98987e-11)
(0.000239865 -2.12327e-11 -2.12471e-11)
(0.000239865 3.06133e-11 3.06163e-11)
(0.000239866 -4.34499e-11 -4.33658e-11)
(0.000239866 3.84316e-11 3.834e-11)
(0.000239865 -2.70136e-11 -2.65521e-11)
(0.000239864 5.24934e-11 5.29416e-11)
(0.000239862 -1.64268e-11 -1.61427e-11)
(0.000239862 1.83337e-11 1.86423e-11)
(0.00023986 2.64099e-12 2.8326e-12)
(0.000239861 -3.24792e-12 -2.88099e-12)
(0.000239859 2.77813e-11 2.76622e-11)
(0.000239861 -6.71184e-11 -6.7129e-11)
(0.00023986 6.58525e-11 6.58206e-11)
(0.000239861 -4.95951e-11 -4.93824e-11)
(0.000239861 3.2744e-12 2.77433e-12)
(0.000239862 5.2281e-12 5.23065e-12)
(0.000239862 -3.66044e-11 -3.67665e-11)
(0.000239864 -2.59845e-11 -2.44389e-11)
(0.000239864 1.73749e-11 1.61046e-11)
(0.000239862 3.17611e-11 3.23199e-11)
(0.000239861 -5.18016e-12 -4.90967e-12)
(0.00023986 -1.13212e-11 -1.07135e-11)
(0.000239859 4.74801e-11 4.77261e-11)
(0.000239857 -5.59375e-11 -5.53543e-11)
(0.000239859 4.06994e-11 4.06119e-11)
(0.000239857 -2.27124e-11 -2.2496e-11)
(0.000239859 -1.27368e-11 -1.28517e-11)
(0.000239858 1.51399e-11 1.51818e-11)
(0.000239859 -4.5634e-11 -4.54977e-11)
(0.000239857 7.06844e-11 7.11655e-11)
(0.000239857 -8.45323e-11 -8.46411e-11)
(0.000239857 7.94542e-11 7.9609e-11)
(0.000239857 -8.51555e-11 -8.53146e-11)
(0.000239858 6.06962e-11 6.06522e-11)
(0.000239858 -8.33799e-11 -8.27353e-11)
(0.000239856 8.55918e-11 8.6639e-11)
(0.000239855 -1.17944e-10 -1.17494e-10)
(0.000239854 1.04631e-10 1.05295e-10)
(0.000239853 -1.18053e-10 -1.17786e-10)
(0.000239853 9.72406e-11 9.74363e-11)
(0.000239853 -1.04556e-10 -1.04224e-10)
(0.000239852 9.17684e-11 9.19752e-11)
(0.000239853 -1.08206e-10 -1.0791e-10)
(0.000239852 1.03501e-10 1.03613e-10)
(0.000239852 -1.18018e-10 -1.17802e-10)
(0.000239852 1.15537e-10 1.15552e-10)
(0.000239852 -1.22346e-10 -1.22207e-10)
(0.000239852 1.21517e-10 1.21441e-10)
(0.000239852 -1.21697e-10 -1.21636e-10)
(0.000239852 1.24256e-10 1.241e-10)
(0.000239852 -1.1939e-10 -1.19404e-10)
(0.000239852 1.25405e-10 1.25187e-10)
(0.000239852 -1.1633e-10 -1.1641e-10)
(0.000239852 1.24792e-10 1.2453e-10)
(0.000239853 -1.12294e-10 -1.12434e-10)
(0.000239853 1.21854e-10 1.21559e-10)
(0.000239853 -1.06811e-10 -1.07009e-10)
(0.000239854 1.16295e-10 1.15971e-10)
(0.000239854 -1.0028e-10 -1.00537e-10)
(0.000239855 1.09204e-10 1.08852e-10)
(0.000239855 -9.42338e-11 -9.45486e-11)
(0.000239856 1.02136e-10 1.01762e-10)
(0.000239856 -9.28841e-11 -9.31953e-11)
(0.000239856 1.09038e-10 1.08837e-10)
(0.000239857 -1.09763e-10 -1.10589e-10)
(0.000239858 1.19783e-10 1.19298e-10)
(0.000239859 -1.09727e-10 -1.10486e-10)
(0.000239862 6.66353e-11 6.52977e-11)
(0.000431338 7.64824e-05 6.18263e-05)
(0.000560858 4.88391e-06 4.12987e-06)
(0.000457857 -1.74588e-06 -1.89303e-06)
(0.00051054 1.1589e-06 1.13206e-06)
(0.000479825 -6.73573e-07 -6.54768e-07)
(0.000497673 3.93477e-07 3.77734e-07)
(0.000487284 -2.27359e-07 -2.15111e-07)
(0.000493302 1.2843e-07 1.19324e-07)
(0.000489853 -6.8915e-08 -6.39951e-08)
(0.000491763 3.56585e-08 3.25665e-08)
(0.00049074 -1.67845e-08 -1.5904e-08)
(0.000491252 7.62994e-09 7.22742e-09)
(0.00049101 -2.99997e-09 -3.15595e-09)
(0.000491117 1.33075e-09 1.37231e-09)
(0.000491075 -3.62769e-10 -5.69935e-10)
(0.000491091 3.1408e-10 2.79568e-10)
(0.000491086 -7.91003e-11 -1.53971e-10)
(0.000491088 1.3271e-10 1.51389e-10)
(0.000491088 -9.10431e-11 -8.30286e-11)
(0.00049109 5.76929e-11 1.48075e-10)
(0.000491091 -1.15451e-10 -5.09677e-11)
(0.000491093 -6.70454e-12 1.36998e-10)
(0.000491095 -1.27475e-10 -1.6565e-11)
(0.000491097 -7.66353e-11 1.35364e-10)
(0.0004911 -1.3912e-10 -5.97784e-11)
(0.000491099 1.28244e-10 1.54125e-10)
(0.000491099 -6.81087e-11 -1.67947e-10)
(0.000491099 1.91664e-10 5.67079e-11)
(0.000491097 3.92479e-11 -1.19004e-10)
(0.000491095 9.51996e-11 7.90329e-11)
(0.000491096 -2.23009e-11 -1.54121e-10)
(0.000491093 1.6115e-10 1.52548e-10)
(0.000491095 -1.93599e-10 -1.83736e-10)
(0.000491094 1.49346e-10 2.54049e-10)
(0.000491098 -2.46156e-10 -2.69119e-10)
(0.000491095 2.53982e-10 3.25799e-10)
(0.000491098 -2.90671e-10 -3.5385e-10)
(0.000491096 2.35795e-10 3.48881e-10)
(0.000491098 -2.19121e-10 -3.15612e-10)
(0.000491098 2.69657e-11 2.95146e-10)
(0.000491101 -1.61768e-10 -2.67545e-10)
(0.000491099 1.1698e-10 4.982e-10)
(0.0004911 -9.71232e-11 -5.35021e-10)
(0.000491101 2.15586e-10 2.53299e-10)
(0.000491098 -7.97209e-12 -3.71084e-10)
(0.000491097 3.03564e-10 3.29173e-10)
(0.000491096 -2.26257e-10 -4.31733e-10)
(0.000491097 3.59633e-10 3.88647e-10)
(0.000491094 -2.37185e-10 -4.15222e-10)
(0.000491096 3.11858e-10 3.02168e-10)
(0.000491093 -1.62817e-10 -3.3974e-10)
(0.000491094 2.35712e-10 2.4206e-10)
(0.000491093 -1.20528e-10 -3.1861e-10)
(0.000491092 2.62409e-10 2.11569e-10)
(0.000491092 -1.73284e-10 -2.92002e-10)
(0.000491091 2.27991e-10 2.52928e-10)
(0.000491091 -2.01075e-10 -2.46928e-10)
(0.000491092 1.2133e-10 2.98614e-10)
(0.000491092 -1.36015e-10 -2.63881e-10)
(0.000491092 1.33348e-10 2.65548e-10)
(0.000491092 -1.37716e-10 -2.72548e-10)
(0.000491092 1.48787e-10 2.68813e-10)
(0.000491091 -1.57817e-10 -2.96327e-10)
(0.000491091 2.132e-10 2.54028e-10)
(0.000491091 -2.28553e-10 -2.61814e-10)
(0.000491091 1.77492e-10 2.88083e-10)
(0.000491091 -2.54381e-10 -2.04076e-10)
(0.000491092 7.54735e-11 3.22649e-10)
(0.000491093 -2.02424e-10 -2.21426e-10)
(0.000491093 1.15738e-10 3.02121e-10)
(0.000491094 -2.31343e-10 -2.48134e-10)
(0.000491094 1.40754e-10 3.18889e-10)
(0.000491095 -2.35411e-10 -2.55417e-10)
(0.000491095 1.14742e-10 2.91341e-10)
(0.000491095 -2.27179e-10 -1.76309e-10)
(0.000491097 1.50294e-11 2.76549e-10)
(0.000491099 -2.47569e-10 -1.51405e-10)
(0.0004911 2.77462e-11 3.44525e-10)
(0.0004911 -1.31476e-10 -2.62317e-10)
(0.000491102 1.01691e-10 1.82297e-10)
(0.000491099 -5.32355e-11 -1.50079e-10)
(0.000491101 3.96159e-11 1.46616e-10)
(0.0004911 -1.15245e-10 -1.35339e-10)
(0.000491102 6.05522e-11 1.59458e-10)
(0.0004911 -8.1753e-11 -1.45476e-10)
(0.000491102 1.28154e-10 8.83877e-11)
(0.000491099 -6.92396e-11 -8.69351e-11)
(0.000491101 6.73862e-11 5.82376e-11)
(0.0004911 -9.48356e-11 -4.84742e-11)
(0.000491101 5.22645e-11 3.53541e-11)
(0.0004911 -6.55282e-12 -6.49369e-11)
(0.000491099 1.49225e-10 4.59056e-12)
(0.000491097 7.8454e-12 -8.06055e-11)
(0.000491096 9.89969e-11 2.79033e-11)
(0.000491096 -2.91697e-11 -6.00185e-11)
(0.000491095 1.46565e-11 7.07198e-11)
(0.000491096 -1.8883e-11 -7.69536e-11)
(0.000491095 3.83774e-11 8.64606e-11)
(0.000491096 -4.34875e-11 -1.02578e-10)
(0.000491095 7.40172e-11 1.01204e-10)
(0.000491096 -1.09093e-10 -8.40712e-11)
(0.000491096 3.05827e-11 1.26063e-10)
(0.000491098 -1.53018e-10 -7.13143e-11)
(0.000491099 1.78429e-12 1.47336e-10)
(0.0004911 -5.41823e-11 -1.19783e-10)
(0.0004911 1.06207e-10 9.60372e-11)
(0.000491099 -5.49601e-11 -1.02355e-10)
(0.000491099 5.97105e-11 9.76945e-11)
(0.000491099 -1.01381e-10 -9.90623e-11)
(0.0004911 4.70848e-11 1.25318e-10)
(0.000491099 -1.31618e-11 -1.52959e-10)
(0.000491098 1.61974e-10 7.35658e-11)
(0.000491096 -1.97994e-11 -1.35786e-10)
(0.000491095 1.24986e-10 8.97502e-11)
(0.000491095 -7.78958e-11 -1.17646e-10)
(0.000491095 5.07137e-11 1.20381e-10)
(0.000491095 -6.04405e-11 -1.13661e-10)
(0.000491096 4.95795e-11 1.03614e-10)
(0.000491095 -5.27039e-11 -1.0635e-10)
(0.000491096 6.05002e-11 8.45486e-11)
(0.000491095 -1.03971e-10 -7.39339e-11)
(0.000491097 1.02102e-11 9.21322e-11)
(0.000491098 -1.45168e-10 -4.34056e-11)
(0.0004911 -1.07464e-11 1.12262e-10)
(0.0004911 -5.41402e-11 -7.31939e-11)
(0.0004911 8.98274e-11 7.14465e-11)
(0.000491099 -4.54295e-11 -4.63168e-11)
(0.000491099 3.47464e-11 7.56385e-11)
(0.0004911 -7.27233e-11 -3.79146e-11)
(0.0004911 -4.90799e-12 8.42152e-11)
(0.000491101 -4.0948e-12 -5.54906e-11)
(0.0004911 7.06362e-11 7.06112e-11)
(0.0004911 -2.88745e-11 -3.82453e-11)
(0.000491099 4.82598e-11 7.79535e-11)
(0.0004911 -1.00577e-10 -7.06796e-11)
(0.0004911 7.74672e-11 7.98666e-11)
(0.000491099 1.89638e-11 -1.24144e-10)
(0.000491098 1.88329e-10 2.68078e-11)
(0.000491095 4.68838e-11 -1.20176e-10)
(0.000491095 7.42404e-11 6.98356e-12)
(0.000491092 6.91511e-11 -8.80116e-11)
(0.000491093 2.18259e-11 -1.45435e-11)
(0.00049109 5.52074e-11 2.84188e-11)
(0.000491094 -1.83044e-10 -8.2258e-11)
(0.000491091 1.39719e-10 1.30724e-10)
(0.000491094 -1.11821e-10 -1.30955e-10)
(0.000491093 -6.57827e-11 1.25247e-10)
(0.000491095 3.74536e-12 -6.01883e-11)
(0.000491095 -1.85702e-10 1.00067e-10)
(0.000491098 -5.83388e-11 -2.4286e-10)
(0.000491098 4.51055e-11 1.80681e-10)
(0.000491094 1.96011e-10 -1.67556e-10)
(0.000491094 2.11998e-11 -3.19583e-12)
(0.000491091 6.82185e-11 -1.94529e-10)
(0.000491091 1.41951e-10 6.21634e-11)
(0.000491087 -9.33272e-11 -1.6935e-10)
(0.000491091 1.09588e-10 2.28829e-11)
(0.000491085 -6.04767e-11 -2.26388e-11)
(0.00049109 -3.67617e-11 -5.97365e-11)
(0.000491087 -2.06121e-11 1.14918e-10)
(0.00049109 -4.78968e-11 -1.94765e-10)
(0.000491087 1.55468e-10 1.31316e-10)
(0.000491088 -1.51028e-10 -2.22433e-10)
(0.000491087 1.31681e-10 1.97787e-10)
(0.000491087 -1.81936e-10 -1.88554e-10)
(0.000491088 5.86394e-11 2.22256e-10)
(0.000491088 -9.58017e-11 -3.54755e-10)
(0.000491084 1.99298e-10 8.97892e-11)
(0.000491084 -1.77671e-10 -3.96134e-10)
(0.000491081 2.15913e-10 1.68555e-10)
(0.000491081 -2.00767e-10 -3.47725e-10)
(0.00049108 1.63559e-10 2.57522e-10)
(0.00049108 -1.65469e-10 -3.53633e-10)
(0.000491078 1.49588e-10 2.57401e-10)
(0.000491079 -1.7341e-10 -3.65646e-10)
(0.000491078 1.69912e-10 3.02466e-10)
(0.000491078 -1.96943e-10 -3.75809e-10)
(0.000491077 1.92147e-10 3.42e-10)
(0.000491078 -2.06523e-10 -3.72228e-10)
(0.000491077 2.0234e-10 3.66643e-10)
(0.000491077 -2.05287e-10 -3.59166e-10)
(0.000491078 2.06964e-10 3.83034e-10)
(0.000491078 -2.01222e-10 -3.42933e-10)
(0.000491078 2.09181e-10 3.92806e-10)
(0.000491078 -1.96225e-10 -3.2511e-10)
(0.000491079 2.07993e-10 3.95488e-10)
(0.000491079 -1.90406e-10 -3.04827e-10)
(0.00049108 2.01484e-10 3.91089e-10)
(0.00049108 -1.83542e-10 -2.79919e-10)
(0.000491081 1.88124e-10 3.80071e-10)
(0.000491081 -1.77353e-10 -2.4946e-10)
(0.000491083 1.70362e-10 3.64874e-10)
(0.000491082 -1.75018e-10 -2.17136e-10)
(0.000491084 1.50501e-10 3.47094e-10)
(0.000491084 -1.7388e-10 -1.97605e-10)
(0.000491085 1.66392e-10 3.25176e-10)
(0.000491087 -2.476e-10 -1.50676e-10)
(0.000491088 1.74309e-10 3.76685e-10)
(0.00049109 -2.8728e-10 -1.49045e-10)
(0.000491094 1.66187e-11 3.5752e-10)
(0.000547107 6.87622e-05 6.17275e-05)
(0.000721346 5.15296e-06 4.47013e-06)
(0.000596028 -1.70408e-06 -2.05863e-06)
(0.000663267 1.18334e-06 1.24212e-06)
(0.000624105 -6.88623e-07 -7.18424e-07)
(0.000646855 4.04315e-07 4.14274e-07)
(0.000633648 -2.35351e-07 -2.35678e-07)
(0.000641258 1.34289e-07 1.30535e-07)
(0.000636933 -7.25647e-08 -6.9827e-08)
(0.000639308 3.81876e-08 3.55275e-08)
(0.000638051 -1.79947e-08 -1.73222e-08)
(0.000638675 8.3347e-09 7.90545e-09)
(0.000638384 -3.13473e-09 -3.43409e-09)
(0.000638512 1.55272e-09 1.54239e-09)
(0.000638464 -2.74302e-10 -6.06049e-10)
(0.000638482 3.97707e-10 3.33246e-10)
(0.000638476 -5.82397e-12 -1.56598e-10)
(0.00063848 1.58882e-10 1.75209e-10)
(0.00063848 -5.17639e-11 -8.71003e-11)
(0.000638482 4.425e-11 1.60891e-10)
(0.000638483 -1.07912e-10 -6.26175e-11)
(0.000638485 -4.9666e-11 1.42005e-10)
(0.000638486 -1.51383e-10 -3.23551e-11)
(0.000638489 -1.53637e-10 1.27269e-10)
(0.000638491 -1.56093e-10 -6.98828e-11)
(0.000638491 1.15249e-10 1.63499e-10)
(0.000638491 -1.17507e-11 -1.63849e-10)
(0.00063849 2.4454e-10 7.88758e-11)
(0.000638489 1.06989e-10 -1.11661e-10)
(0.000638487 9.74874e-11 9.67623e-11)
(0.000638488 3.77477e-11 -1.56264e-10)
(0.000638485 1.56984e-10 1.75679e-10)
(0.000638488 -1.78362e-10 -2.0351e-10)
(0.000638486 1.03711e-10 2.70206e-10)
(0.00063849 -2.15286e-10 -2.92676e-10)
(0.000638486 2.10522e-10 3.57285e-10)
(0.000638491 -2.42832e-10 -3.88349e-10)
(0.000638487 1.6369e-10 3.92897e-10)
(0.000638491 -1.62115e-10 -3.5704e-10)
(0.000638489 -9.40625e-11 3.24598e-10)
(0.000638494 -1.18579e-10 -3.06115e-10)
(0.000638491 -1.21568e-11 4.81147e-10)
(0.000638492 5.94388e-11 -5.02161e-10)
(0.000638493 2.0357e-10 3.16229e-10)
(0.00063849 1.59594e-10 -3.83213e-10)
(0.000638491 2.8146e-10 3.982e-10)
(0.000638488 -1.06486e-10 -4.64109e-10)
(0.000638491 3.33969e-10 4.41933e-10)
(0.000638487 -1.43885e-10 -4.3458e-10)
(0.00063849 2.99503e-10 3.4736e-10)
(0.000638486 -7.98972e-11 -3.49375e-10)
(0.000638488 2.21833e-10 2.79179e-10)
(0.000638486 -3.38247e-11 -3.19636e-10)
(0.000638485 2.66312e-10 2.58382e-10)
(0.000638485 -1.1103e-10 -3.0691e-10)
(0.000638484 2.06844e-10 2.87254e-10)
(0.000638485 -1.60826e-10 -2.79059e-10)
(0.000638485 4.57051e-11 3.07796e-10)
(0.000638486 -7.05976e-11 -2.85478e-10)
(0.000638486 6.67748e-11 2.86509e-10)
(0.000638485 -7.38825e-11 -2.93898e-10)
(0.000638486 8.32076e-11 2.89859e-10)
(0.000638485 -9.85698e-11 -3.13718e-10)
(0.000638485 1.71105e-10 2.851e-10)
(0.000638484 -2.07463e-10 -2.96233e-10)
(0.000638485 1.1443e-10 3.03118e-10)
(0.000638485 -2.60457e-10 -2.52806e-10)
(0.000638485 -3.23251e-11 3.14012e-10)
(0.000638486 -1.8648e-10 -2.59259e-10)
(0.000638486 2.40464e-11 3.07642e-10)
(0.000638487 -2.15558e-10 -2.88223e-10)
(0.000638487 4.80786e-11 3.29385e-10)
(0.000638487 -2.21347e-10 -2.97742e-10)
(0.000638488 1.80975e-11 3.03538e-10)
(0.000638488 -2.37906e-10 -2.26116e-10)
(0.000638489 -9.91716e-11 2.72683e-10)
(0.000638491 -2.80703e-10 -2.00894e-10)
(0.000638492 -9.4672e-11 3.19929e-10)
(0.000638492 -8.76059e-11 -2.67861e-10)
(0.000638493 6.05735e-11 2.00089e-10)
(0.000638491 -1.34213e-11 -1.67981e-10)
(0.000638493 -1.28559e-11 1.61217e-10)
(0.000638491 -9.8326e-11 -1.57937e-10)
(0.000638494 1.09696e-11 1.6855e-10)
(0.000638491 -5.36209e-11 -1.53567e-10)
(0.000638494 1.3218e-10 1.01763e-10)
(0.00063849 -6.35729e-11 -9.06859e-11)
(0.000638492 6.68918e-11 6.27145e-11)
(0.000638491 -1.07515e-10 -5.52234e-11)
(0.000638492 4.82611e-11 4.48109e-11)
(0.000638492 2.00996e-11 -6.91549e-11)
(0.00063849 1.90064e-10 1.71491e-11)
(0.000638489 3.71385e-11 -7.64586e-11)
(0.000638487 1.17488e-10 3.62392e-11)
(0.000638488 -1.05903e-11 -6.37213e-11)
(0.000638486 -6.15942e-12 7.38353e-11)
(0.000638488 9.92809e-12 -8.21891e-11)
(0.000638487 1.39931e-11 9.47854e-11)
(0.000638488 -1.59966e-11 -1.09935e-10)
(0.000638487 5.32492e-11 1.1266e-10)
(0.000638487 -1.05558e-10 -9.6744e-11)
(0.000638488 -5.87571e-12 1.31959e-10)
(0.00063849 -1.68003e-10 -8.71157e-11)
(0.000638491 -5.39313e-11 1.48137e-10)
(0.000638492 -2.05277e-11 -1.25544e-10)
(0.000638491 1.00786e-10 1.09904e-10)
(0.000638491 -3.1835e-11 -1.11152e-10)
(0.00063849 3.93585e-11 1.08296e-10)
(0.000638491 -9.4215e-11 -1.11378e-10)
(0.000638491 1.08817e-11 1.29418e-10)
(0.000638491 4.1621e-11 -1.52906e-10)
(0.00063849 1.80567e-10 9.11861e-11)
(0.000638488 2.44545e-11 -1.40576e-10)
(0.000638487 1.25343e-10 1.05231e-10)
(0.000638487 -5.20266e-11 -1.29041e-10)
(0.000638487 1.90566e-11 1.29952e-10)
(0.000638487 -3.31239e-11 -1.23236e-10)
(0.000638488 1.9356e-11 1.13343e-10)
(0.000638487 -3.0402e-11 -1.12237e-10)
(0.000638487 4.00591e-11 9.57012e-11)
(0.000638487 -1.09457e-10 -8.1092e-11)
(0.000638489 -2.32015e-11 9.67742e-11)
(0.000638489 -1.73639e-10 -5.64199e-11)
(0.000638491 -5.97941e-11 1.10333e-10)
(0.000638492 -3.76666e-11 -7.99891e-11)
(0.000638492 9.26352e-11 7.84582e-11)
(0.000638491 -3.84104e-11 -5.66458e-11)
(0.000638491 2.03951e-11 7.46495e-11)
(0.000638492 -7.69857e-11 -5.12977e-11)
(0.000638492 -4.00249e-11 7.9832e-11)
(0.000638492 2.69085e-11 -6.27109e-11)
(0.000638492 7.08688e-11 7.39688e-11)
(0.000638491 -1.53279e-11 -5.05577e-11)
(0.000638491 3.83368e-11 7.71185e-11)
(0.000638492 -1.05337e-10 -8.15592e-11)
(0.000638491 6.36112e-11 8.81645e-11)
(0.000638491 8.97714e-11 -1.22031e-10)
(0.000638489 2.38508e-10 4.85427e-11)
(0.000638487 1.11685e-10 -1.10311e-10)
(0.000638487 8.31936e-11 2.47409e-11)
(0.000638484 1.30441e-10 -8.05908e-11)
(0.000638485 2.21413e-11 -3.69987e-12)
(0.000638481 6.58301e-11 3.12046e-11)
(0.000638487 -2.23264e-10 -9.90681e-11)
(0.000638482 1.35596e-10 1.50567e-10)
(0.000638487 -9.47298e-11 -1.53506e-10)
(0.000638484 -1.52018e-10 1.37746e-10)
(0.000638488 2.43641e-11 -8.33439e-11)
(0.000638486 -3.08196e-10 1.01761e-10)
(0.00063849 -5.32017e-11 -2.26403e-10)
(0.00063849 2.77592e-11 1.74982e-10)
(0.000638485 3.19173e-10 -1.54836e-10)
(0.000638486 2.40389e-12 3.57156e-11)
(0.000638481 1.54116e-10 -1.93731e-10)
(0.000638484 1.37516e-10 9.91517e-11)
(0.000638477 -7.70493e-11 -1.72837e-10)
(0.000638483 1.22646e-10 3.64659e-11)
(0.000638476 -9.25455e-11 -1.81421e-11)
(0.000638482 -2.9038e-11 -7.19634e-11)
(0.000638478 -9.11451e-11 1.16414e-10)
(0.000638482 3.01263e-12 -1.97268e-10)
(0.000638478 1.30494e-10 1.61866e-10)
(0.000638479 -1.23852e-10 -2.41039e-10)
(0.000638478 8.04981e-11 2.18021e-10)
(0.000638479 -1.73469e-10 -2.19564e-10)
(0.000638479 -2.43589e-11 2.29063e-10)
(0.000638479 -5.4579e-11 -3.50339e-10)
(0.000638475 1.45955e-10 1.4362e-10)
(0.000638474 -1.49582e-10 -4.03381e-10)
(0.000638471 1.53538e-10 2.17084e-10)
(0.000638471 -1.66879e-10 -3.70213e-10)
(0.00063847 9.64947e-11 2.87765e-10)
(0.00063847 -1.2505e-10 -3.74779e-10)
(0.000638468 7.09171e-11 2.92389e-10)
(0.000638469 -1.23969e-10 -3.92244e-10)
(0.000638467 9.02537e-11 3.39369e-10)
(0.000638468 -1.41177e-10 -4.07966e-10)
(0.000638467 1.17137e-10 3.78556e-10)
(0.000638467 -1.44715e-10 -4.07734e-10)
(0.000638467 1.33557e-10 4.01673e-10)
(0.000638467 -1.37021e-10 -3.96868e-10)
(0.000638467 1.44454e-10 4.16188e-10)
(0.000638467 -1.27424e-10 -3.82059e-10)
(0.000638468 1.52462e-10 4.23846e-10)
(0.000638468 -1.18835e-10 -3.64868e-10)
(0.000638469 1.56061e-10 4.24128e-10)
(0.000638468 -1.12004e-10 -3.44588e-10)
(0.00063847 1.52906e-10 4.16845e-10)
(0.000638469 -1.07238e-10 -3.1923e-10)
(0.000638471 1.41409e-10 4.02071e-10)
(0.000638471 -1.06855e-10 -2.88045e-10)
(0.000638473 1.24504e-10 3.82433e-10)
(0.000638472 -1.14324e-10 -2.55409e-10)
(0.000638475 1.04447e-10 3.60201e-10)
(0.000638474 -1.24376e-10 -2.32785e-10)
(0.000638476 1.26381e-10 3.37941e-10)
(0.000638477 -2.22206e-10 -1.96004e-10)
(0.000638479 1.28365e-10 3.83474e-10)
(0.000638481 -2.76079e-10 -2.06915e-10)
(0.000638485 -8.11959e-11 3.46248e-10)
(0.000610784 4.42473e-05 5.99993e-05)
(0.000812425 3.62139e-06 4.49143e-06)
(0.000676068 -1.10581e-06 -2.07114e-06)
(0.000751382 8.04119e-07 1.25954e-06)
(0.00070755 -4.68009e-07 -7.29332e-07)
(0.000733009 2.75796e-07 4.21166e-07)
(0.000718257 -1.613e-07 -2.39928e-07)
(0.000726725 9.25911e-08 1.33054e-07)
(0.000721943 -5.01964e-08 -7.10947e-08)
(0.000724552 2.66132e-08 3.61819e-08)
(0.000723185 -1.25354e-08 -1.75532e-08)
(0.000723858 5.80088e-09 8.01061e-09)
(0.000723548 -2.10771e-09 -3.44616e-09)
(0.000723685 1.12253e-09 1.5593e-09)
(0.000723633 -1.31381e-10 -5.90882e-10)
(0.000723654 3.05081e-10 3.47281e-10)
(0.000723648 3.47565e-11 -1.52296e-10)
(0.000723651 1.25259e-10 1.7793e-10)
(0.000723652 -1.17444e-11 -9.06781e-11)
(0.000723653 3.29474e-11 1.5453e-10)
(0.000723654 -6.25526e-11 -7.3529e-11)
(0.000723656 -4.38175e-11 1.28098e-10)
(0.000723657 -1.05517e-10 -4.67854e-11)
(0.00072366 -1.28433e-10 1.01677e-10)
(0.000723661 -1.10803e-10 -7.89364e-11)
(0.000723661 8.07779e-11 1.64148e-10)
(0.000723662 9.1851e-12 -1.53837e-10)
(0.000723661 1.86041e-10 9.68029e-11)
(0.00072366 9.82398e-11 -9.18159e-11)
(0.000723658 6.47771e-11 1.01115e-10)
(0.00072366 4.80457e-11 -1.42443e-10)
(0.000723656 1.03055e-10 1.81916e-10)
(0.00072366 -1.13138e-10 -2.09768e-10)
(0.000723657 5.4825e-11 2.61116e-10)
(0.000723662 -1.34479e-10 -2.95302e-10)
(0.000723657 1.26854e-10 3.55467e-10)
(0.000723663 -1.47779e-10 -3.89567e-10)
(0.000723658 7.79969e-11 3.89054e-10)
(0.000723663 -8.52167e-11 -3.54019e-10)
(0.00072366 -1.17551e-10 2.93868e-10)
(0.000723665 -6.33539e-11 -2.93234e-10)
(0.000723662 -2.23113e-11 4.37392e-10)
(0.000723663 6.10251e-11 -4.50129e-10)
(0.000723664 1.28011e-10 3.148e-10)
(0.000723661 1.75396e-10 -3.39982e-10)
(0.000723663 1.75671e-10 4.0677e-10)
(0.000723659 -2.37146e-11 -4.48496e-10)
(0.000723663 2.1762e-10 4.4891e-10)
(0.000723658 -6.63178e-11 -4.19001e-10)
(0.000723663 1.96093e-10 3.56038e-10)
(0.000723658 -2.73348e-11 -3.31341e-10)
(0.000723661 1.423e-10 2.83951e-10)
(0.000723659 2.76535e-12 -2.98121e-10)
(0.000723659 1.75326e-10 2.73229e-10)
(0.000723659 -5.43998e-11 -2.98532e-10)
(0.000723658 1.30623e-10 2.91525e-10)
(0.000723659 -9.01496e-11 -2.80709e-10)
(0.000723658 8.80085e-12 2.89079e-10)
(0.000723659 -2.38933e-11 -2.74402e-10)
(0.000723659 2.10049e-11 2.74963e-10)
(0.000723659 -2.79e-11 -2.82018e-10)
(0.000723659 3.18924e-11 2.79969e-10)
(0.000723658 -4.9544e-11 -3.01113e-10)
(0.000723659 9.60299e-11 2.87957e-10)
(0.000723657 -1.32249e-10 -2.99898e-10)
(0.000723658 5.52703e-11 2.95537e-10)
(0.000723658 -1.72014e-10 -2.67006e-10)
(0.000723658 -5.3605e-11 2.85369e-10)
(0.000723659 -1.17566e-10 -2.62311e-10)
(0.000723658 -1.44941e-11 2.88566e-10)
(0.000723659 -1.38203e-10 -2.92775e-10)
(0.000723659 4.81417e-13 3.12872e-10)
(0.000723659 -1.42957e-10 -3.02653e-10)
(0.00072366 -2.55799e-11 2.88052e-10)
(0.000723659 -1.57116e-10 -2.39477e-10)
(0.000723661 -1.07666e-10 2.41368e-10)
(0.000723662 -1.98746e-10 -2.16317e-10)
(0.000723663 -9.01541e-11 2.8226e-10)
(0.000723662 -5.67089e-11 -2.54973e-10)
(0.000723664 2.6852e-11 1.91472e-10)
(0.000723661 8.48669e-12 -1.57162e-10)
(0.000723664 -3.23681e-11 1.50554e-10)
(0.000723661 -5.89702e-11 -1.59671e-10)
(0.000723665 -1.12146e-11 1.59384e-10)
(0.000723661 -2.79409e-11 -1.48194e-10)
(0.000723665 9.0664e-11 1.0942e-10)
(0.00072366 -4.20113e-11 -8.97974e-11)
(0.000723663 4.37819e-11 6.49042e-11)
(0.000723662 -7.8195e-11 -6.3523e-11)
(0.000723663 2.62775e-11 4.79621e-11)
(0.000723662 2.58226e-11 -6.34785e-11)
(0.000723661 1.41129e-10 3.79286e-11)
(0.00072366 3.43975e-11 -6.70683e-11)
(0.000723658 8.41085e-11 4.71059e-11)
(0.000723659 9.71983e-13 -6.22423e-11)
(0.000723657 -1.12752e-11 6.84324e-11)
(0.000723659 1.79174e-11 -7.72993e-11)
(0.000723658 -1.74285e-13 9.17313e-11)
(0.000723659 -3.9066e-13 -1.05254e-10)
(0.000723658 2.5877e-11 1.1352e-10)
(0.000723658 -6.67024e-11 -1.03121e-10)
(0.000723659 -1.77892e-11 1.2251e-10)
(0.00072366 -1.17896e-10 -9.99351e-11)
(0.000723661 -5.39453e-11 1.31748e-10)
(0.000723662 -2.3025e-12 -1.19146e-10)
(0.000723662 6.65504e-11 1.14347e-10)
(0.000723661 -1.14024e-11 -1.07162e-10)
(0.000723661 1.68114e-11 1.05356e-10)
(0.000723662 -6.21552e-11 -1.14458e-10)
(0.000723662 -4.23851e-12 1.21151e-10)
(0.000723661 4.46142e-11 -1.37538e-10)
(0.000723661 1.27828e-10 1.0508e-10)
(0.000723659 3.31832e-11 -1.28503e-10)
(0.000723658 8.15658e-11 1.12809e-10)
(0.000723658 -2.3989e-11 -1.2823e-10)
(0.000723658 6.08884e-13 1.24093e-10)
(0.000723658 -1.25515e-11 -1.19993e-10)
(0.000723659 4.58001e-13 1.09591e-10)
(0.000723658 -1.35679e-11 -1.08002e-10)
(0.000723659 1.58619e-11 9.61006e-11)
(0.000723658 -7.64575e-11 -8.75729e-11)
(0.000723659 -3.01236e-11 8.82192e-11)
(0.00072366 -1.28661e-10 -7.17114e-11)
(0.000723662 -5.71609e-11 9.66874e-11)
(0.000723662 -1.77052e-11 -7.91491e-11)
(0.000723662 6.72889e-11 8.418e-11)
(0.000723661 -1.91474e-11 -5.76029e-11)
(0.000723661 1.13201e-11 7.08256e-11)
(0.000723662 -5.19156e-11 -5.78185e-11)
(0.000723662 -3.79575e-11 6.91858e-11)
(0.000723662 3.45853e-11 -5.70127e-11)
(0.000723662 5.36756e-11 7.68064e-11)
(0.000723662 1.18397e-12 -5.03131e-11)
(0.000723661 2.49842e-11 7.39556e-11)
(0.000723662 -7.42597e-11 -8.73569e-11)
(0.000723662 3.5895e-11 8.87493e-11)
(0.000723662 8.92887e-11 -1.05652e-10)
(0.00072366 1.78808e-10 7.09159e-11)
(0.000723658 9.61496e-11 -9.09566e-11)
(0.000723658 5.25217e-11 3.47314e-11)
(0.000723655 1.07749e-10 -6.39719e-11)
(0.000723657 1.04875e-11 3.72828e-12)
(0.000723652 4.76025e-11 3.21038e-11)
(0.000723659 -1.68608e-10 -1.14415e-10)
(0.000723652 8.94151e-11 1.55532e-10)
(0.000723659 -5.57787e-11 -1.55319e-10)
(0.000723654 -1.42821e-10 1.15438e-10)
(0.000723659 2.83516e-11 -7.60618e-11)
(0.000723657 -2.62713e-10 6.12286e-11)
(0.00072366 -7.03587e-11 -2.04599e-10)
(0.00072366 3.40323e-11 1.59794e-10)
(0.000723656 2.55599e-10 -1.03081e-10)
(0.000723658 -2.4842e-11 4.07864e-11)
(0.000723652 1.29007e-10 -1.61955e-10)
(0.000723657 7.73739e-11 1.14335e-10)
(0.000723648 -5.74417e-11 -1.65164e-10)
(0.000723656 8.03408e-11 4.74866e-11)
(0.000723647 -8.36418e-11 -2.0823e-11)