/*--------------------------------*- C++ -*----------------------------------*\
  =========                 |
  \\      /  F ield         | OpenFOAM: The Open Source CFD Toolbox
   \\    /   O peration     | Website:  https://openfoam.org
    \\  /    A nd           | Version:  13
     \\/     M anipulation  |
\*---------------------------------------------------------------------------*/
FoamFile
{
    format      ascii;
    class       surfaceScalarField;
    location    "29";
    object      phi;
}
// * * * * * * * * * * * * * * * * * * * * * * * * * * * * * * * * * * * * * //

dimensions      [0 3 -1 0 0 0 0];

internalField   nonuniform List<scalar> 
28364
(
1.42462e-11
3.54025e-11
3.54025e-11
6.49047e-12
3.87788e-12
3.87785e-12
6.95713e-12
-2.33085e-13
-2.32874e-13
7.00993e-12
-2.65337e-14
-2.64358e-14
6.96879e-12
2.03757e-14
2.01481e-14
7.00673e-12
-1.8975e-14
-1.90228e-14
7.00258e-12
2.0484e-15
2.01565e-15
7.00792e-12
-2.69415e-15
-2.70035e-15
7.00826e-12
-1.93153e-16
-1.69731e-16
7.00918e-12
-4.51858e-16
-4.50113e-16
7.00825e-12
4.72759e-16
4.65654e-16
7.00943e-12
-5.81176e-16
-5.79152e-16
7.00825e-12
5.76634e-16
5.90552e-16
7.00939e-12
-5.82388e-16
-5.70517e-16
7.00817e-12
5.91799e-16
5.72672e-16
7.00938e-12
-6.05264e-16
-6.20542e-16
7.00804e-12
6.53313e-16
6.72742e-16
7.00943e-12
-6.76753e-16
-6.69958e-16
7.0084e-12
5.28304e-16
4.99817e-16
7.00943e-12
-4.78666e-16
-4.84836e-16
7.0085e-12
4.59567e-16
4.81619e-16
7.00948e-12
-4.5398e-16
-4.47099e-16
7.00886e-12
3.17321e-16
3.22139e-16
7.00949e-12
-2.76238e-16
-2.44572e-16
7.00891e-12
2.86178e-16
3.76524e-16
7.00952e-12
-3.95804e-16
-3.38909e-16
7.00884e-12
4.07592e-16
2.22828e-16
7.00951e-12
-3.34227e-16
-3.55128e-16
7.00869e-12
3.95147e-16
3.99554e-16
7.0096e-12
-4.37807e-16
-4.40991e-16
7.0088e-12
3.8092e-16
3.79312e-16
7.00952e-12
-3.56047e-16
-3.29655e-16
7.00875e-12
3.71393e-16
3.52334e-16
7.0095e-12
-3.56043e-16
-3.77552e-16
7.00892e-12
3.03308e-16
2.85436e-16
7.00956e-12
-2.93652e-16
-2.89077e-16
7.00898e-12
2.90493e-16
3.02996e-16
7.0095e-12
-2.32337e-16
-2.17638e-16
7.00912e-12
1.93118e-16
2.96864e-16
7.00945e-12
-2.41343e-16
-1.71317e-16
7.00915e-12
2.47886e-16
5.8435e-17
7.00943e-12
-1.23554e-16
-7.13625e-17
7.00915e-12
1.03452e-16
3.04674e-16
7.00946e-12
-2.87239e-16
-2.23841e-16
7.0092e-12
2.43066e-16
-1.10244e-17
7.00939e-12
-7.58023e-17
-1.08811e-16
7.00925e-12
6.52845e-17
7.69623e-17
7.00939e-12
-8.98084e-17
-7.51008e-17
7.00926e-12
8.45029e-17
5.08805e-17
7.00935e-12
-5.92849e-17
-3.91825e-17
-4.55503e-17
-7.06678e-17
2.49536e-11
4.04784e-11
5.50217e-11
1.49132e-11
5.53955e-12
8.37874e-12
1.47464e-11
1.11519e-13
-1.76039e-13
1.49624e-11
-1.18551e-13
-1.24236e-13
1.49098e-11
3.68115e-14
3.44194e-14
1.49602e-11
-3.25995e-14
-3.69927e-14
1.49624e-11
-2.30493e-15
1.95664e-15
1.49692e-11
-4.53718e-15
-5.16679e-15
1.49709e-11
-1.31764e-15
-5.62362e-16
1.4972e-11
-5.01587e-16
-1.02307e-15
1.4971e-11
4.10278e-16
1.02748e-15
1.49723e-11
-5.82299e-16
-1.22784e-15
1.49711e-11
5.52758e-16
1.25029e-15
1.49722e-11
-6.07618e-16
-1.20138e-15
1.49709e-11
5.48643e-16
1.20713e-15
1.49722e-11
-5.76696e-16
-1.34411e-15
1.49707e-11
5.7561e-16
1.48942e-15
1.49723e-11
-7.14647e-16
-1.39976e-15
1.49713e-11
5.68023e-16
1.00368e-15
1.49724e-11
-4.16245e-16
-9.95408e-16
1.49714e-11
4.28165e-16
1.04715e-15
1.49725e-11
-4.44849e-16
-9.16147e-16
1.49719e-11
3.80337e-16
5.78366e-16
1.49726e-11
-2.3131e-16
-4.32116e-16
1.4972e-11
3.12784e-16
7.63561e-16
1.49727e-11
-6.15068e-16
-7.15703e-16
1.49719e-11
5.29408e-16
4.86146e-16
1.49726e-11
-3.17805e-16
-7.48289e-16
1.49717e-11
3.2607e-16
8.86033e-16
1.49727e-11
-4.36788e-16
-9.23807e-16
1.49719e-11
3.80212e-16
7.31934e-16
1.49726e-11
-3.884e-16
-6.15853e-16
1.49718e-11
3.34146e-16
7.56206e-16
1.49726e-11
-3.51695e-16
-7.90155e-16
1.4972e-11
3.12479e-16
5.958e-16
1.49727e-11
-2.51698e-16
-5.89177e-16
1.49721e-11
3.36624e-16
6.05843e-16
1.49727e-11
-1.76907e-16
-4.32778e-16
1.49723e-11
2.75009e-16
5.56848e-16
1.49727e-11
-4.36788e-16
-3.31966e-16
1.49723e-11
4.74258e-16
1.0479e-16
1.49726e-11
-7.92731e-17
-1.22606e-16
1.49723e-11
6.36171e-17
6.27744e-16
1.49727e-11
-5.93269e-16
-5.3035e-16
1.49724e-11
4.68931e-16
5.39304e-18
1.49726e-11
-6.63777e-17
-1.93174e-16
1.49724e-11
5.96331e-17
1.55434e-16
1.49726e-11
-1.23824e-16
-1.7309e-16
1.49724e-11
1.13879e-16
1.1684e-16
1.49726e-11
-7.86935e-17
-1.15737e-16
6.96416e-18
-3.71759e-16
3.0187e-11
3.62506e-11
5.9092e-11
2.04245e-11
5.11909e-12
1.0183e-11
1.99341e-11
4.84088e-13
1.19528e-13
2.01602e-11
-1.63343e-13
-1.81556e-13
2.01185e-11
4.67203e-14
3.01074e-14
2.0171e-11
-3.86701e-14
-4.66707e-14
2.01766e-11
-7.75027e-15
-3.55405e-16
2.01839e-11
-5.64275e-15
-6.42959e-15
2.01861e-11
-2.3229e-15
-1.12508e-15
2.01872e-11
-4.71901e-16
-1.20948e-15
2.01863e-11
2.15439e-16
1.16312e-15
2.01876e-11
-4.10463e-16
-1.41728e-15
2.01864e-11
3.65746e-16
1.418e-15
2.01875e-11
-4.51729e-16
-1.36639e-15
2.01862e-11
3.53665e-16
1.37622e-15
2.01874e-11
-3.72084e-16
-1.51386e-15
2.0186e-11
3.63053e-16
1.66151e-15
2.01875e-11
-5.53803e-16
-1.62472e-15
2.01866e-11
4.1693e-16
1.15651e-15
2.01877e-11
-2.23271e-16
-1.15134e-15
2.01867e-11
2.71856e-16
1.17569e-15
2.01879e-11
-3.13017e-16
-1.07379e-15
2.01873e-11
3.01968e-16
6.63893e-16
2.0188e-11
-1.15423e-16
-5.05748e-16
2.01874e-11
2.5074e-16
7.99455e-16
2.01881e-11
-7.96696e-16
-7.02502e-16
2.01873e-11
5.85156e-16
5.63204e-16
2.0188e-11
-1.88574e-16
-8.42268e-16
2.01871e-11
1.86037e-16
9.85298e-16
2.01881e-11
-3.06411e-16
-1.0692e-15
2.01873e-11
2.50752e-16
8.44817e-16
2.0188e-11
-2.97408e-16
-7.17921e-16
2.01871e-11
2.14082e-16
8.66709e-16
2.01879e-11
-2.38855e-16
-9.10232e-16
2.01874e-11
2.24123e-16
6.76558e-16
2.01881e-11
-1.23615e-16
-6.95678e-16
2.01875e-11
2.76933e-16
7.04146e-16
2.01881e-11
-5.39218e-17
-5.16298e-16
2.01877e-11
2.76381e-16
5.62638e-16
2.01881e-11
-6.55993e-16
-2.67445e-16
2.01877e-11
6.78828e-16
1.09927e-16
2.0188e-11
2.30954e-17
-1.77572e-16
2.01878e-11
-2.0329e-17
6.16234e-16
2.01881e-11
-9.38601e-16
-4.39434e-16
2.01878e-11
6.80059e-16
1.58816e-17
2.0188e-11
-4.28986e-18
-2.29576e-16
2.01879e-11
4.63679e-17
1.54499e-16
2.0188e-11
-1.56464e-16
-1.73754e-16
2.01879e-11
1.3436e-16
1.3106e-16
2.0188e-11
-1.02707e-16
-1.28876e-16
1.4158e-17
-3.68164e-16
3.3083e-11
2.85498e-11
5.9669e-11
2.40516e-11
3.78433e-12
1.03663e-11
2.35622e-11
6.04474e-13
3.70542e-13
2.37399e-11
-1.51091e-13
-1.90067e-13
2.37063e-11
5.00266e-14
2.86538e-14
2.37581e-11
-3.6805e-14
-5.38346e-14
2.37643e-11
-1.07572e-14
-3.41298e-15
2.37717e-11
-5.8373e-15
-7.45059e-15
2.37737e-11
-2.66989e-15
-1.69402e-15
2.3775e-11
-4.66503e-16
-1.23295e-15
2.3774e-11
9.7415e-17
1.11747e-15
2.37753e-11
-2.74975e-16
-1.39818e-15
2.37741e-11
2.14776e-16
1.39332e-15
2.37752e-11
-3.286e-16
-1.33856e-15
2.37739e-11
2.22317e-16
1.34205e-15
2.37751e-11
-2.25477e-16
-1.47285e-15
2.37737e-11
2.31544e-16
1.61638e-15
2.37752e-11
-4.03944e-16
-1.63043e-15
2.37742e-11
3.04143e-16
1.12522e-15
2.37753e-11
-9.32897e-17
-1.1264e-15
2.37744e-11
1.66799e-16
1.14382e-15
2.37755e-11
-1.90124e-16
-1.08932e-15
2.3775e-11
2.24734e-16
6.37728e-16
2.37757e-11
-3.14056e-17
-4.84564e-16
2.37751e-11
1.79414e-16
7.38005e-16
2.37758e-11
-9.60245e-16
-6.31961e-16
2.3775e-11
6.57146e-16
5.56369e-16
2.37757e-11
-8.09074e-17
-8.14881e-16
2.37748e-11
1.09954e-16
9.5161e-16
2.37758e-11
-1.95022e-16
-1.06229e-15
2.3775e-11
1.4213e-16
8.22588e-16
2.37756e-11
-2.37029e-16
-6.86036e-16
2.37748e-11
1.41602e-16
8.49482e-16
2.37756e-11
-1.33416e-16
-9.1356e-16
2.37751e-11
1.72955e-16
6.48682e-16
2.37758e-11
-4.67354e-17
-6.71792e-16
2.37752e-11
2.22961e-16
6.91884e-16
2.37758e-11
4.7727e-17
-5.17524e-16
2.37754e-11
2.43319e-16
4.97621e-16
2.37758e-11
-8.68628e-16
-1.9018e-16
2.37755e-11
8.57937e-16
1.02121e-16
2.37758e-11
1.18959e-16
-1.78593e-16
2.37755e-11
-1.19261e-16
5.38379e-16
2.37759e-11
-1.24471e-15
-3.54414e-16
2.37756e-11
8.64181e-16
2.86157e-17
2.37758e-11
7.16268e-17
-2.25531e-16
2.37756e-11
4.25383e-17
1.33094e-16
2.37758e-11
-1.94527e-16
-1.55074e-16
2.37756e-11
1.64233e-16
1.18964e-16
2.37758e-11
-1.29665e-16
-1.14859e-16
2.4675e-17
-3.77222e-16
3.47094e-11
1.94553e-11
5.94364e-11
2.63898e-11
2.32713e-12
9.77703e-12
2.60401e-11
4.99242e-13
4.56085e-13
2.61792e-11
-1.09709e-13
-1.80308e-13
2.61463e-11
4.31414e-14
3.81189e-14
2.61956e-11
-2.78749e-14
-5.83901e-14
2.62008e-11
-1.00157e-14
-6.21844e-15
2.6208e-11
-4.79397e-15
-8.42566e-15
2.62098e-11
-2.29505e-15
-2.1098e-15
2.6211e-11
-3.97959e-16
-1.28196e-15
2.621e-11
-7.41273e-18
1.13467e-15
2.62113e-11
-1.47446e-16
-1.40663e-15
2.62101e-11
7.10586e-17
1.40295e-15
2.62112e-11
-2.00083e-16
-1.35634e-15
2.62099e-11
1.1258e-16
1.34797e-15
2.62111e-11
-7.07383e-17
-1.50557e-15
2.62096e-11
1.106e-16
1.63639e-15
2.62111e-11
-2.53595e-16
-1.64542e-15
2.62102e-11
1.8341e-16
1.15512e-15
2.62113e-11
2.25468e-17
-1.14636e-15
2.62104e-11
7.0056e-17
1.16209e-15
2.62115e-11
-7.39045e-17
-1.1008e-15
2.6211e-11
1.39944e-16
6.36955e-16
2.62117e-11
3.17349e-17
-4.70968e-16
2.62111e-11
1.07433e-16
6.74933e-16
2.62117e-11
-1.04853e-15
-6.12254e-16
2.6211e-11
7.12565e-16
5.76643e-16
2.62116e-11
3.81012e-17
-8.28754e-16
2.62107e-11
4.38863e-17
9.64521e-16
2.62117e-11
-9.12459e-17
-1.06832e-15
2.62109e-11
2.49641e-17
8.3404e-16
2.62116e-11
-1.71032e-16
-6.93728e-16
2.62107e-11
9.05917e-17
8.53449e-16
2.62115e-11
-2.11938e-17
-9.34749e-16
2.6211e-11
1.11791e-16
6.77303e-16
2.62117e-11
9.18882e-18
-6.7123e-16
2.62111e-11
1.57102e-16
6.99914e-16
2.62117e-11
1.26984e-16
-5.16522e-16
2.62114e-11
1.85512e-16
4.31505e-16
2.62118e-11
-1.02883e-15
-1.46579e-16
2.62114e-11
9.78721e-16
1.21722e-16
2.62117e-11
2.05498e-16
-1.76039e-16
2.62114e-11
-2.11634e-16
4.42018e-16
2.62118e-11
-1.46147e-15
-3.05327e-16
2.62115e-11
9.88907e-16
6.88042e-17
2.62117e-11
1.43675e-16
-2.06113e-16
2.62116e-11
4.13404e-17
1.20162e-16
2.62117e-11
-2.20249e-16
-1.50211e-16
2.62116e-11
1.82675e-16
1.21778e-16
2.62117e-11
-1.35109e-16
-1.26113e-16
2.79342e-17
-3.69333e-16
3.55818e-11
9.82211e-12
5.91026e-11
2.77792e-11
1.0697e-12
9.06032e-12
2.75863e-11
2.71939e-13
4.21199e-13
2.77092e-11
-5.73563e-14
-1.74901e-13
2.7674e-11
2.4506e-14
5.22165e-14
2.77203e-11
-1.42896e-14
-6.00162e-14
2.77241e-11
-5.87173e-15
-8.18212e-15
2.77308e-11
-2.57043e-15
-9.17942e-15
2.77323e-11
-1.29067e-15
-2.41257e-15
2.77334e-11
-2.47956e-16
-1.33147e-15
2.77325e-11
-9.83175e-17
1.1598e-15
2.77337e-11
-2.57123e-17
-1.42593e-15
2.77325e-11
-6.3854e-17
1.42016e-15
2.77336e-11
-6.99542e-17
-1.37944e-15
2.77323e-11
1.4208e-17
1.36996e-15
2.77335e-11
7.30966e-17
-1.53097e-15
2.77321e-11
-1.16675e-17
1.67101e-15
2.77336e-11
-9.5205e-17
-1.67877e-15
2.77326e-11
7.02285e-17
1.18511e-15
2.77337e-11
1.27699e-16
-1.17628e-15
2.77328e-11
-1.78453e-17
1.18668e-15
2.77339e-11
4.54688e-17
-1.12953e-15
2.77334e-11
6.25149e-17
6.28209e-16
2.77341e-11
8.66256e-17
-4.70245e-16
2.77335e-11
4.19468e-17
5.90253e-16
2.77341e-11
-1.04556e-15
-5.81046e-16
2.77334e-11
7.2212e-16
6.24025e-16
2.7734e-11
1.42164e-16
-8.23134e-16
2.77331e-11
-2.38152e-17
9.88865e-16
2.77341e-11
7.69399e-18
-1.08543e-15
2.77333e-11
-9.01403e-17
8.4267e-16
2.7734e-11
-1.00595e-16
-7.03143e-16
2.77331e-11
4.56409e-17
8.75061e-16
2.77339e-11
8.72839e-17
-9.54268e-16
2.77334e-11
5.09861e-17
7.04223e-16
2.77341e-11
5.58939e-17
-6.8436e-16
2.77335e-11
8.3524e-17
7.08593e-16
2.77341e-11
1.89244e-16
-5.27782e-16
2.77338e-11
1.20951e-16
3.31432e-16
2.77342e-11
-1.09987e-15
-1.03452e-16
2.77338e-11
1.0223e-15
1.49836e-16
2.77341e-11
2.71458e-16
-1.7043e-16
2.77338e-11
-2.85059e-16
3.09924e-16
2.77342e-11
-1.5484e-15
-2.50904e-16
2.77339e-11
1.03248e-15
1.28278e-16
2.77341e-11
1.98681e-16
-1.71343e-16
2.7734e-11
3.78696e-17
1.07464e-16
2.77341e-11
-2.27188e-16
-1.44133e-16
2.7734e-11
1.81818e-16
1.27768e-16
2.77341e-11
-1.20646e-16
-1.33947e-16
2.89302e-17
-3.63543e-16
3.59646e-11
4.47342e-16
5.89082e-11
2.84244e-11
2.52226e-17
8.61034e-12
2.83285e-11
4.87763e-16
3.68032e-13
2.84484e-11
-1.23242e-15
-1.75413e-13
2.84113e-11
-1.96401e-15
6.18847e-14
2.84556e-11
1.35009e-15
-6.00481e-14
2.84584e-11
2.14125e-16
-9.11614e-15
2.84648e-11
3.61716e-16
-9.58566e-15
2.84661e-11
7.88546e-17
-2.56961e-15
2.84672e-11
-4.46554e-17
-1.36905e-15
2.84662e-11
-1.71404e-16
1.17764e-15
2.84675e-11
8.97177e-17
-1.4434e-15
2.84663e-11
-1.85711e-16
1.4338e-15
2.84674e-11
5.64687e-17
-1.39726e-15
2.84661e-11
-7.68726e-17
1.39143e-15
2.84673e-11
1.94961e-16
-1.54469e-15
2.84658e-11
-1.31832e-16
1.70061e-15
2.84673e-11
6.94988e-17
-1.71234e-15
2.84664e-11
-3.00831e-17
1.20628e-15
2.84675e-11
2.19582e-16
-1.19979e-15
2.84665e-11
-9.53347e-17
1.20834e-15
2.84676e-11
1.66639e-16
-1.15796e-15
2.84671e-11
-4.24712e-18
6.16495e-16
2.84678e-11
1.36545e-16
-4.70509e-16
2.84672e-11
-1.16857e-17
5.07712e-16
2.84678e-11
-9.57518e-16
-5.55901e-16
2.84671e-11
6.73458e-16
6.78947e-16
2.84677e-11
2.18162e-16
-8.06699e-16
2.84668e-11
-9.2602e-17
1.01009e-15
2.84678e-11
1.01532e-16
-1.10278e-15
2.8467e-11
-1.93711e-16
8.43925e-16
2.84677e-11
-2.80394e-17
-7.07962e-16
2.84668e-11
4.21873e-19
8.98912e-16
2.84676e-11
1.85175e-16
-9.69255e-16
2.84671e-11
-4.29039e-18
7.24314e-16
2.84678e-11
9.56566e-17
-6.95923e-16
2.84672e-11
7.52266e-18
7.14466e-16
2.84678e-11
2.36368e-16
-5.38424e-16
2.84675e-11
6.29393e-17
2.29155e-16
2.84679e-11
-1.0763e-15
-7.32855e-17
2.84675e-11
9.83381e-16
1.84896e-16
2.84679e-11
3.09266e-16
-1.54867e-16
2.84675e-11
-3.25372e-16
1.75151e-16
2.84679e-11
-1.50247e-15
-2.1508e-16
2.84676e-11
9.88654e-16
1.93466e-16
2.84678e-11
2.28898e-16
-1.31745e-16
2.84677e-11
3.03914e-17
9.73534e-17
2.84678e-11
-2.15081e-16
-1.40494e-16
2.84677e-11
1.62931e-16
1.34131e-16
2.84678e-11
-9.22143e-17
-1.37556e-16
3.02767e-17
-3.60079e-16
3.59646e-11
-9.82124e-12
5.89082e-11
2.84244e-11
-1.06962e-12
8.61039e-12
2.83285e-11
-2.71007e-13
3.67789e-13
2.84484e-11
5.50132e-14
-1.75276e-13
2.84113e-11
-2.83532e-14
6.18535e-14
2.84556e-11
1.69104e-14
-5.99797e-14
2.84584e-11
6.27422e-15
-9.08197e-15
2.84648e-11
3.25381e-15
-9.58173e-15
2.84661e-11
1.43589e-15
-2.53902e-15
2.84672e-11
1.58828e-16
-1.39857e-15
2.84662e-11
-2.25924e-16
1.19473e-15
2.84675e-11
1.99357e-16
-1.46438e-15
2.84663e-11
-2.91823e-16
1.44813e-15
2.84674e-11
1.75941e-16
-1.41577e-15
2.84661e-11
-1.63142e-16
1.41716e-15
2.84673e-11
2.97343e-16
-1.56494e-15
2.84658e-11
-2.44066e-16
1.72742e-15
2.84673e-11
2.31681e-16
-1.74286e-15
2.84664e-11
-1.21087e-16
1.23437e-15
2.84675e-11
2.95296e-16
-1.22547e-15
2.84666e-11
-1.64821e-16
1.23171e-15
2.84677e-11
2.7814e-16
-1.18205e-15
2.84671e-11
-6.68078e-17
6.09923e-16
2.84678e-11
1.77436e-16
-4.71409e-16
2.84672e-11
-6.06026e-17
4.25701e-16
2.84678e-11
-7.91704e-16
-5.21774e-16
2.84671e-11
5.67264e-16
7.32259e-16
2.84677e-11
2.69967e-16
-7.96517e-16
2.84668e-11
-1.57967e-16
1.02972e-15
2.84678e-11
1.89157e-16
-1.12109e-15
2.8467e-11
-2.80156e-16
8.45874e-16
2.84677e-11
4.63624e-17
-7.14227e-16
2.84669e-11
-4.59307e-17
9.24536e-16
2.84676e-11
2.69585e-16
-9.85341e-16
2.84671e-11
-5.60715e-17
7.4863e-16
2.84678e-11
1.27028e-16
-7.08723e-16
2.84673e-11
-6.75406e-17
7.19898e-16
2.84679e-11
2.65021e-16
-5.49882e-16
2.84675e-11
6.99623e-18
1.26681e-16
2.84679e-11
-9.62382e-16
-3.294e-17
2.84676e-11
8.63815e-16
2.16526e-16
2.84679e-11
3.14744e-16
-1.41594e-16
2.84676e-11
-3.3492e-16
3.55591e-17
2.84679e-11
-1.3297e-15
-1.64204e-16
2.84676e-11
8.64995e-16
2.53188e-16
2.84678e-11
2.34436e-16
-9.20138e-17
2.84677e-11
1.78647e-17
8.64252e-17
2.84679e-11
-1.84656e-16
-1.35023e-16
2.84677e-11
1.30601e-16
1.36904e-16
2.84678e-11
-5.50426e-17
-1.36892e-16
2.92765e-17
-3.55524e-16
3.55818e-11
-1.94545e-11
5.91026e-11
2.77793e-11
-2.32696e-12
9.06046e-12
2.75864e-11
-4.98383e-13
4.20497e-13
2.77093e-11
1.07689e-13
-1.74521e-13
2.7674e-11
-4.67524e-14
5.21191e-14
2.77203e-11
3.02649e-14
-5.98142e-14
2.77241e-11
1.03413e-14
-8.08438e-15
2.77309e-11
5.36493e-15
-9.16564e-15
2.77324e-11
2.40529e-15
-2.32574e-15
2.77335e-11
3.12838e-16
-1.4164e-15
2.77326e-11
-2.66721e-16
1.2078e-15
2.77338e-11
3.06671e-16
-1.48503e-15
2.77326e-11
-3.84188e-16
1.46113e-15
2.77337e-11
2.88566e-16
-1.43161e-15
2.77324e-11
-2.50401e-16
1.44229e-15
2.77336e-11
3.8759e-16
-1.58688e-15
2.77321e-11
-3.44679e-16
1.74788e-15
2.77337e-11
3.84892e-16
-1.76566e-15
2.77327e-11
-2.12471e-16
1.2627e-15
2.77338e-11
3.57375e-16
-1.24824e-15
2.77329e-11
-2.30637e-16
1.2532e-15
2.7734e-11
3.71906e-16
-1.19826e-15
2.77335e-11
-1.34337e-16
6.07813e-16
2.77342e-11
2.09592e-16
-4.71072e-16
2.77335e-11
-1.10881e-16
3.5709e-16
2.77341e-11
-5.6994e-16
-4.85914e-16
2.77334e-11
4.10432e-16
7.76266e-16
2.77341e-11
3.06257e-16
-7.93158e-16
2.77332e-11
-2.16054e-16
1.04415e-15
2.77342e-11
2.71645e-16
-1.13737e-15
2.77334e-11
-3.48921e-16
8.46434e-16
2.77341e-11
1.24394e-16
-7.18835e-16
2.77332e-11
-9.66201e-17
9.48667e-16
2.7734e-11
3.40338e-16
-1.00001e-15
2.77335e-11
-1.08391e-16
7.71432e-16
2.77342e-11
1.52659e-16
-7.19958e-16
2.77336e-11
-1.39716e-16
7.23848e-16
2.77342e-11
2.77303e-16
-5.59339e-16
2.77338e-11
-5.03614e-17
3.96154e-17
2.77342e-11
-7.78255e-16
9.42507e-18
2.77339e-11
6.77158e-16
2.40318e-16
2.77342e-11
2.92628e-16
-1.29368e-16
2.77339e-11
-3.17722e-16
-8.58505e-17
2.77342e-11
-1.06118e-15
-1.10682e-16
2.7734e-11
6.79133e-16
2.98066e-16
2.77342e-11
2.20415e-16
-5.91917e-17
2.7734e-11
8.88411e-19
7.62728e-17
2.77342e-11
-1.39859e-16
-1.29616e-16
2.7734e-11
9.10592e-17
1.36362e-16
2.77342e-11
-1.60432e-17
-1.32158e-16
2.36079e-17
-3.51149e-16
3.47094e-11
-2.85492e-11
5.94364e-11
2.63899e-11
-3.78405e-12
9.7773e-12
2.60403e-11
-6.0374e-13
4.54882e-13
2.61793e-11
1.49607e-13
-1.79657e-13
2.61463e-11
-5.32521e-14
3.79773e-14
2.61956e-11
3.88237e-14
-5.80675e-14
2.62009e-11
1.09635e-14
-6.05871e-15
2.62081e-11
6.23332e-15
-8.41198e-15
2.62099e-11
2.73706e-15
-1.97916e-15
2.62111e-11
3.93581e-16
-1.42103e-15
2.62101e-11
-2.97579e-16
1.21964e-15
2.62114e-11
4.10279e-16
-1.50506e-15
2.62102e-11
-4.64524e-16
1.4736e-15
2.62113e-11
3.89792e-16
-1.44339e-15
2.621e-11
-3.42361e-16
1.46923e-15
2.62112e-11
4.56615e-16
-1.59717e-15
2.62097e-11
-4.27991e-16
1.7555e-15
2.62113e-11
5.27382e-16
-1.78533e-15
2.62103e-11
-3.00182e-16
1.2897e-15
2.62114e-11
4.02163e-16
-1.26799e-15
2.62105e-11
-2.89426e-16
1.2646e-15
2.62116e-11
4.48852e-16
-1.21456e-15
2.62111e-11
-2.02482e-16
6.11406e-16
2.62118e-11
2.34409e-16
-4.83012e-16
2.62112e-11
-1.66426e-16
3.07176e-16
2.62118e-11
-3.218e-16
-4.4506e-16
2.6211e-11
2.15141e-16
8.12842e-16
2.62117e-11
3.22772e-16
-7.87423e-16
2.62108e-11
-2.61625e-16
1.04967e-15
2.62118e-11
3.50424e-16
-1.15353e-15
2.6211e-11
-3.93684e-16
8.49932e-16
2.62117e-11
1.98038e-16
-7.26264e-16
2.62108e-11
-1.58451e-16
9.74712e-16
2.62116e-11
3.91018e-16
-1.0065e-15
2.62111e-11
-1.51981e-16
7.85536e-16
2.62118e-11
1.76974e-16
-7.37281e-16
2.62112e-11
-2.0352e-16
7.26386e-16
2.62118e-11
2.79604e-16
-5.7564e-16
2.62115e-11
-1.04798e-16
-2.79277e-17
2.62118e-11
-5.49578e-16
4.94971e-17
2.62115e-11
4.49748e-16
2.53995e-16
2.62119e-11
2.48368e-16
-1.31469e-16
2.62115e-11
-2.81144e-16
-1.83036e-16
2.62119e-11
-7.35083e-16
-4.62524e-17
2.62116e-11
4.58161e-16
3.27043e-16
2.62118e-11
1.93934e-16
-3.87269e-17
2.62117e-11
-1.90106e-17
6.7894e-17
2.62118e-11
-8.61324e-17
-1.22768e-16
2.62117e-11
5.01383e-17
1.34076e-16
2.62118e-11
1.47623e-17
-1.22183e-16
1.77941e-17
-3.52818e-16
3.30831e-11
-3.62501e-11
5.9669e-11
2.40518e-11
-5.11876e-12
1.03667e-11
2.35623e-11
-4.83541e-13
3.68996e-13
2.374e-11
1.62542e-13
-1.89231e-13
2.37063e-11
-4.9411e-14
2.84652e-14
2.37581e-11
4.02024e-14
-5.34056e-14
2.37643e-11
7.80764e-15
-3.20498e-15
2.37718e-11
5.85255e-15
-7.46394e-15
2.37739e-11
2.34292e-15
-1.52319e-15
2.37751e-11
4.3187e-16
-1.42493e-15
2.37742e-11
-3.46143e-16
1.24863e-15
2.37754e-11
5.20717e-16
-1.53309e-15
2.37742e-11
-5.50463e-16
1.49812e-15
2.37753e-11
4.92813e-16
-1.46387e-15
2.3774e-11
-4.61079e-16
1.51058e-15
2.37752e-11
5.18978e-16
-1.61249e-15
2.37738e-11
-5.18832e-16
1.77923e-15
2.37753e-11
6.72228e-16
-1.81766e-15
2.37744e-11
-3.96774e-16
1.31967e-15
2.37754e-11
4.50262e-16
-1.29441e-15
2.37745e-11
-3.55099e-16
1.28364e-15
2.37757e-11
5.22446e-16
-1.24015e-15
2.37751e-11
-2.74356e-16
6.15775e-16
2.37758e-11
2.7117e-16
-5.01844e-16
2.37752e-11
-2.40483e-16
2.76586e-16
2.37758e-11
-6.27568e-17
-4.00203e-16
2.37751e-11
-8.16882e-18
8.40217e-16
2.37758e-11
3.2939e-16
-7.86612e-16
2.37749e-11
-3.11825e-16
1.06479e-15
2.37759e-11
4.3594e-16
-1.17904e-15
2.37751e-11
-4.2808e-16
8.58052e-16
2.37757e-11
2.76828e-16
-7.36268e-16
2.37749e-11
-2.47104e-16
1.01001e-15
2.37757e-11
4.24714e-16
-1.01346e-15
2.37752e-11
-1.94034e-16
7.98814e-16
2.37759e-11
2.22058e-16
-7.66467e-16
2.37753e-11
-2.62272e-16
7.31752e-16
2.37759e-11
2.8738e-16
-5.98328e-16
2.37755e-11
-1.60967e-16
-8.12371e-17
2.37759e-11
-2.88897e-16
9.31883e-17
2.37756e-11
2.1018e-16
2.47497e-16
2.37759e-11
1.99114e-16
-1.39392e-16
2.37756e-11
-2.44851e-16
-2.51807e-16
2.37759e-11
-3.86622e-16
2.8645e-17
2.37757e-11
2.31429e-16
3.31239e-16
2.37759e-11
1.6699e-16
-2.90233e-17
2.37757e-11
-4.41152e-17
6.17078e-17
2.37759e-11
-2.53107e-17
-1.15522e-16
2.37757e-11
5.71635e-18
1.32162e-16
2.37759e-11
3.39682e-17
-1.1005e-16
1.95093e-17
-3.64385e-16
3.01871e-11
-4.04781e-11
5.9092e-11
2.04246e-11
-5.53921e-12
1.01836e-11
1.99342e-11
-1.11233e-13
1.17688e-13
2.01603e-11
1.18446e-13
-1.80481e-13
2.01185e-11
-3.87861e-14
2.98709e-14
2.0171e-11
3.35351e-14
-4.6119e-14
2.01766e-11
2.2616e-15
-1.72446e-16
2.0184e-11
4.58304e-15
-6.48176e-15
2.01862e-11
1.3123e-15
-9.30295e-16
2.01874e-11
4.77243e-16
-1.41663e-15
2.01865e-11
-4.60529e-16
1.321e-15
2.01877e-11
6.37345e-16
-1.56179e-15
2.01865e-11
-6.54703e-16
1.53714e-15
2.01876e-11
6.15549e-16
-1.50702e-15
2.01863e-11
-6.11637e-16
1.55546e-15
2.01875e-11
6.41437e-16
-1.69475e-15
2.01861e-11
-6.7672e-16
1.85764e-15
2.01876e-11
7.88437e-16
-1.82168e-15
2.01867e-11
-5.28926e-16
1.38022e-15
2.01878e-11
5.39913e-16
-1.34798e-15
2.01868e-11
-4.7264e-16
1.35069e-15
2.0188e-11
5.70661e-16
-1.24055e-15
2.01874e-11
-3.62629e-16
6.30493e-16
2.01881e-11
3.29529e-16
-5.08207e-16
2.01875e-11
-3.48461e-16
2.37804e-16
2.01881e-11
2.13883e-16
-3.29272e-16
2.01874e-11
-2.19172e-16
8.28915e-16
2.01881e-11
3.84225e-16
-8.40308e-16
2.01872e-11
-4.10718e-16
1.11906e-15
2.01882e-11
5.16689e-16
-1.19519e-15
2.01874e-11
-4.82009e-16
8.82601e-16
2.01881e-11
3.80861e-16
-7.54587e-16
2.01872e-11
-3.55497e-16
1.03718e-15
2.0188e-11
4.57023e-16
-1.03687e-15
2.01875e-11
-2.80351e-16
8.58699e-16
2.01882e-11
3.04222e-16
-7.99907e-16
2.01876e-11
-3.27161e-16
7.46296e-16
2.01882e-11
3.00525e-16
-6.14312e-16
2.01878e-11
-2.51657e-16
-1.32927e-16
2.01881e-11
5.52069e-18
1.80065e-16
2.01879e-11
-9.46738e-18
1.99595e-16
2.01882e-11
1.6776e-16
-1.5758e-16
2.01878e-11
-2.66739e-16
-2.97629e-16
2.01882e-11
-2.42956e-17
1.49678e-16
2.01879e-11
3.46701e-17
2.99138e-16
2.01881e-11
1.52558e-16
-2.10359e-17
2.0188e-11
-7.78692e-17
5.23373e-17
2.01881e-11
4.56374e-17
-1.02083e-16
2.0188e-11
-4.78276e-17
1.24332e-16
2.01881e-11
5.37437e-17
-1.06842e-16
2.25034e-17
-3.42354e-16
2.49536e-11
-3.54023e-11
5.50217e-11
1.49133e-11
-3.87771e-12
8.37955e-12
1.47465e-11
2.33246e-13
-1.78158e-13
1.49624e-11
2.66911e-14
-1.22643e-13
1.49098e-11
-2.13493e-14
3.39033e-14
1.49602e-11
1.92921e-14
-3.64308e-14
1.49624e-11
-2.08963e-15
2.05508e-15
1.49693e-11
2.64789e-15
-5.28412e-15
1.4971e-11
1.89491e-16
-3.79109e-16
1.49721e-11
4.40759e-16
-1.21816e-15
1.49711e-11
-4.61072e-16
1.19798e-15
1.49724e-11
5.86248e-16
-1.38223e-15
1.49711e-11
-6.00467e-16
1.37159e-15
1.49723e-11
5.6383e-16
-1.34851e-15
1.4971e-11
-6.08734e-16
1.39052e-15
1.49723e-11
5.99144e-16
-1.53577e-15
1.49708e-11
-6.8965e-16
1.67351e-15
1.49724e-11
7.03923e-16
-1.59131e-15
1.49713e-11
-4.87715e-16
1.25004e-15
1.49724e-11
5.1107e-16
-1.22021e-15
1.49715e-11
-4.62862e-16
1.21991e-15
1.49726e-11
5.00476e-16
-1.08719e-15
1.4972e-11
-3.03897e-16
5.57265e-16
1.49727e-11
3.11971e-16
-4.53885e-16
1.49721e-11
-3.39284e-16
1.70549e-16
1.49727e-11
3.14039e-16
-2.19811e-16
1.4972e-11
-3.05453e-16
7.12803e-16
1.49727e-11
3.4656e-16
-7.67568e-16
1.49718e-11
-4.24184e-16
1.0087e-15
1.49728e-11
4.64747e-16
-1.0462e-15
1.4972e-11
-4.0556e-16
7.83178e-16
1.49727e-11
3.48589e-16
-6.63883e-16
1.49718e-11
-3.81192e-16
9.26929e-16
1.49727e-11
3.87687e-16
-9.23637e-16
1.49721e-11
-2.65828e-16
7.828e-16
1.49728e-11
3.09734e-16
-7.12003e-16
1.49722e-11
-2.82412e-16
6.49372e-16
1.49728e-11
2.64489e-16
-5.52047e-16
1.49723e-11
-2.31183e-16
-1.68458e-16
1.49727e-11
1.69611e-16
2.39277e-16
1.49724e-11
-1.08758e-16
1.27827e-16
1.49727e-11
1.33109e-16
-1.66295e-16
1.49724e-11
-2.38861e-16
-3.07984e-16
1.49727e-11
1.6904e-16
2.56125e-16
1.49724e-11
-6.82342e-17
2.30447e-16
1.49726e-11
1.18053e-16
-1.83978e-17
1.49725e-11
-8.21822e-17
3.49905e-17
1.49727e-11
7.83648e-17
-6.75066e-17
1.49725e-11
-6.96307e-17
9.28561e-17
1.49726e-11
5.42238e-17
-7.6491e-17
6.55724e-17
-3.56713e-16
1.42462e-11
3.54025e-11
6.49051e-12
3.87815e-12
6.95717e-12
-2.33501e-13
7.00994e-12
-2.5795e-14
6.9688e-12
1.95485e-14
7.00674e-12
-1.86898e-14
7.00258e-12
2.03892e-15
7.00795e-12
-2.77994e-15
7.0083e-12
-1.2665e-16
7.00921e-12
-5.08291e-16
7.00828e-12
5.25671e-16
7.00946e-12
-6.27732e-16
7.00828e-12
6.16726e-16
7.00942e-12
-6.21516e-16
7.0082e-12
6.28408e-16
7.00941e-12
-6.75752e-16
7.00807e-12
6.96736e-16
7.00946e-12
-7.13277e-16
7.00843e-12
5.95846e-16
7.00945e-12
-5.46785e-16
7.00853e-12
5.15377e-16
7.00951e-12
-4.89597e-16
7.00889e-12
3.19397e-16
7.00951e-12
-2.69956e-16
7.00893e-12
1.54977e-16
7.00954e-12
-1.86048e-16
7.00887e-12
3.47336e-16
7.00954e-12
-3.52169e-16
7.00873e-12
4.19688e-16
7.00963e-12
-4.66272e-16
7.00883e-12
3.98853e-16
7.00954e-12
-3.57466e-16
7.00878e-12
4.01455e-16
7.00953e-12
-3.98513e-16
7.00895e-12
3.60885e-16
7.00958e-12
-3.29649e-16
7.009e-12
3.12895e-16
7.00954e-12
-2.67195e-16
7.00914e-12
4.23652e-17
7.00947e-12
-4.852e-20
7.00918e-12
1.24276e-16
7.00947e-12
-1.26631e-16
7.00917e-12
-7.11498e-17
7.00947e-12
3.11013e-17
7.00922e-12
1.47309e-16
7.00941e-12
-3.74815e-17
7.00928e-12
3.00007e-17
7.00942e-12
-3.80375e-17
7.00928e-12
5.01214e-17
7.00937e-12
-2.91815e-17
-3.25363e-19
2.49536e-11
5.50217e-11
4.04784e-11
1.49132e-11
8.37869e-12
5.53958e-12
1.47464e-11
-1.76285e-13
1.11846e-13
1.49624e-11
-1.24431e-13
-1.18161e-13
1.49098e-11
3.47524e-14
3.62743e-14
1.49602e-11
-3.70186e-14
-3.26313e-14
1.49624e-11
1.96716e-15
-2.33832e-15
1.49692e-11
-5.15465e-15
-4.56615e-15
1.49709e-11
-6.09214e-16
-1.24163e-15
1.4972e-11
-1.01342e-15
-5.19022e-16
1.4971e-11
1.01308e-15
4.29307e-16
1.49723e-11
-1.21711e-15
-6.03084e-16
1.49711e-11
1.22044e-15
6.05236e-16
1.49722e-11
-1.21606e-15
-5.93013e-16
1.49709e-11
1.21935e-15
5.31816e-16
1.49722e-11
-1.29715e-15
-6.50548e-16
1.49707e-11
1.45022e-15
6.41488e-16
1.49723e-11
-1.39627e-15
-7.22629e-16
1.49713e-11
1.03612e-15
5.28785e-16
1.49724e-11
-9.67823e-16
-4.6456e-16
1.49714e-11
1.00655e-15
4.96794e-16
1.49725e-11
-9.05106e-16
-4.5952e-16
1.49719e-11
6.16988e-16
3.54645e-16
1.49726e-11
-5.0078e-16
-1.46167e-16
1.4972e-11
7.95068e-16
3.60422e-16
1.49727e-11
-9.93946e-16
-2.66595e-16
1.49719e-11
7.14319e-16
1.25987e-16
1.49726e-11
-7.19362e-16
-3.72687e-16
1.49717e-11
8.66703e-16
3.55881e-16
1.49727e-11
-9.09669e-16
-4.61683e-16
1.49719e-11
7.50303e-16
3.71446e-16
1.49726e-11
-6.94605e-16
-2.98315e-16
1.49718e-11
7.60076e-16
3.20253e-16
1.49726e-11
-7.49343e-16
-4.19719e-16
1.4972e-11
6.05393e-16
2.95972e-16
1.49727e-11
-5.9496e-16
-2.5515e-16
1.49721e-11
6.08942e-16
3.50962e-16
1.49727e-11
-4.24704e-16
-1.82482e-16
1.49723e-11
6.10877e-16
3.11905e-16
1.49727e-11
-6.52493e-16
-3.30804e-17
1.49723e-11
4.1415e-16
-2.27801e-17
1.49726e-11
-1.4194e-16
-2.1539e-17
1.49723e-11
5.64429e-16
3.06123e-16
1.49727e-11
-8.90121e-16
-1.38822e-16
1.49724e-11
3.31263e-16
-1.03559e-16
1.49726e-11
-1.83447e-16
-1.09218e-16
1.49724e-11
1.80011e-16
4.5934e-17
1.49726e-11
-2.42325e-16
-3.68954e-17
1.49724e-11
1.86757e-16
1.09961e-17
1.49726e-11
-1.6256e-16
-1.19216e-17
-3.69219e-16
-2.75461e-17
4.99474e-11
7.25738e-11
7.25737e-11
3.69161e-11
1.48939e-11
1.48949e-11
3.50274e-11
7.70468e-13
7.70271e-13
3.54629e-11
-3.4283e-13
-3.41891e-13
3.54597e-11
3.41706e-14
3.36923e-14
3.55123e-11
-6.37449e-14
-6.33038e-14
3.55391e-11
-1.17945e-14
-1.17809e-14
3.5547e-11
-9.29927e-15
-9.38301e-15
3.55524e-11
-3.41084e-15
-3.17143e-15
3.55526e-11
-1.06296e-15
-1.18942e-15
3.55536e-11
4.83568e-16
6.84031e-16
3.55529e-11
-7.78429e-16
-8.75201e-16
3.55537e-11
7.64456e-16
9.30799e-16
3.55528e-11
-8.56817e-16
-8.86998e-16
3.55536e-11
6.70545e-16
7.1214e-16
3.55526e-11
-8.01908e-16
-1.09042e-15
3.55534e-11
8.81617e-16
1.15216e-15
3.5553e-11
-9.88849e-16
-1.1362e-15
3.5554e-11
6.10376e-16
5.85495e-16
3.55532e-11
-3.34557e-16
-5.32688e-16
3.5554e-11
6.12219e-16
8.58178e-16
3.55538e-11
-4.90402e-16
-6.35778e-16
3.55544e-11
5.54457e-16
2.66985e-16
3.55541e-11
-1.51752e-16
2.45007e-16
3.55543e-11
1.33709e-15
4.56643e-16
3.55541e-11
-1.83204e-15
-3.99977e-16
3.55544e-11
5.14733e-16
8.76449e-17
3.55539e-11
-5.31442e-16
-5.66415e-16
3.55544e-11
4.43531e-16
6.20276e-16
3.55541e-11
-5.95008e-16
-7.03993e-16
3.55545e-11
4.32445e-16
3.15793e-16
3.5554e-11
-4.65189e-16
-8.17078e-17
3.55544e-11
3.491e-16
4.42693e-16
3.55541e-11
-4.5994e-16
-6.87128e-16
3.55547e-11
2.93467e-16
3.79217e-16
3.55543e-11
-2.16525e-16
-1.51862e-16
3.55546e-11
5.17954e-16
4.66751e-16
3.55544e-11
-2.0278e-17
-6.92626e-17
3.55543e-11
1.46078e-15
3.00995e-16
3.55544e-11
-1.56427e-15
1.51057e-16
3.55544e-11
7.3359e-16
-1.9895e-16
3.55543e-11
1.34383e-16
2.40454e-16
3.55542e-11
1.43563e-15
4.76687e-16
3.55545e-11
-2.32622e-15
-4.44241e-16
3.55545e-11
4.35976e-16
-2.41932e-16
3.55544e-11
-2.71367e-16
-1.34996e-17
3.55545e-11
2.32408e-16
-1.55293e-20
3.55544e-11
-3.81415e-16
-3.83805e-17
3.55545e-11
2.07509e-16
-4.90426e-17
3.55544e-11
-1.74802e-16
1.33947e-17
-2.5439e-16
-1.83362e-16
6.3867e-11
6.99499e-11
8.29004e-11
5.23021e-11
1.65642e-11
2.0078e-11
4.95906e-11
1.82893e-12
1.77646e-12
4.99279e-11
-4.17647e-13
-4.44276e-13
4.99705e-11
2.1132e-14
-3.90762e-15