/*--------------------------------*- C++ -*----------------------------------*\
  =========                 |
  \\      /  F ield         | OpenFOAM: The Open Source CFD Toolbox
   \\    /   O peration     | Website:  https://openfoam.org
    \\  /    A nd           | Version:  13
     \\/     M anipulation  |
\*---------------------------------------------------------------------------*/
FoamFile
{
    format      ascii;
    class       volVectorField;
    location    "29";
    object      U;
}
// * * * * * * * * * * * * * * * * * * * * * * * * * * * * * * * * * * * * * //

dimensions      [0 1 -1 0 0 0 0];

internalField   nonuniform List<vector> 
9996
(
(0.267439 0.00700747 0.00700747)
(0.19343 0.000595091 0.000595085)
(0.11868 -0.000117979 -0.000117939)
(0.140159 1.61927e-05 1.6201e-05)
(0.13656 1.08658e-06 1.05032e-06)
(0.136915 -3.02486e-06 -3.03504e-06)
(0.137383 9.85119e-07 9.77961e-07)
(0.137274 -5.70827e-07 -5.71046e-07)
(0.137372 1.04347e-07 1.07967e-07)
(0.137373 -1.0525e-07 -1.0462e-07)
(0.137369 1.1817e-07 1.16388e-07)
(0.137375 -1.30608e-07 -1.29351e-07)
(0.137373 1.33066e-07 1.35175e-07)
(0.137374 -1.38847e-07 -1.37134e-07)
(0.137371 1.37722e-07 1.33543e-07)
(0.137373 -1.4963e-07 -1.51087e-07)
(0.13737 1.49505e-07 1.52883e-07)
(0.13737 -1.4515e-07 -1.44e-07)
(0.137375 1.35376e-07 1.29751e-07)
(0.137374 -1.15579e-07 -1.15489e-07)
(0.137376 1.10858e-07 1.14732e-07)
(0.137375 -9.4994e-08 -9.28094e-08)
(0.137381 8.32384e-08 8.555e-08)
(0.13738 -6.48151e-08 -5.85236e-08)
(0.13738 6.33593e-08 8.3348e-08)
(0.137382 -7.70603e-08 -7.91587e-08)
(0.137379 8.31259e-08 5.27118e-08)
(0.137381 -8.68991e-08 -8.9195e-08)
(0.137377 9.1425e-08 9.20632e-08)
(0.13738 -9.60949e-08 -9.61199e-08)
(0.137381 9.29945e-08 9.29326e-08)
(0.13738 -8.90118e-08 -8.56915e-08)
(0.137379 8.38046e-08 7.95379e-08)
(0.137379 -8.1099e-08 -8.4546e-08)
(0.137381 7.98378e-08 7.6234e-08)
(0.137381 -7.00345e-08 -6.77008e-08)
(0.137382 6.81471e-08 7.12172e-08)
(0.13738 -5.24523e-08 -4.71426e-08)
(0.137383 4.31048e-08 6.6217e-08)
(0.137382 -3.88292e-08 -3.87163e-08)
(0.137382 4.47839e-08 1.72181e-08)
(0.137382 -3.41258e-08 -1.89879e-08)
(0.137382 2.15747e-08 6.11138e-08)
(0.137382 -3.72642e-08 -4.33474e-08)
(0.137383 4.19699e-08 7.37722e-10)
(0.137382 -2.01656e-08 -2.5044e-08)
(0.137383 1.47001e-08 1.8736e-08)
(0.137383 -1.72005e-08 -1.77073e-08)
(0.137383 1.64445e-08 1.25246e-08)
(0.137381 -9.85879e-09 -7.77718e-09)
(0.137384 7.33498e-10 -4.47087e-09)
(0.474607 0.0144425 0.0109565)
(0.38853 0.00186278 0.00127608)
(0.264727 -2.57569e-05 -0.000191917)
(0.296708 -3.27873e-05 1.52402e-05)
(0.292172 1.20931e-05 4.60735e-06)
(0.292607 -9.76415e-06 -6.30768e-06)
(0.29342 8.93038e-08 1.68152e-06)
(0.293282 -1.29566e-06 -1.0977e-06)
(0.293437 -2.71497e-07 2.52906e-07)
(0.293444 -1.83231e-07 -3.02815e-07)
(0.293438 1.80072e-07 3.79593e-07)
(0.293448 -2.32728e-07 -3.62474e-07)
(0.293444 2.26035e-07 3.67684e-07)
(0.293446 -2.35531e-07 -3.94509e-07)
(0.293441 2.2875e-07 3.74812e-07)
(0.293445 -2.3788e-07 -4.78139e-07)
(0.293439 2.49862e-07 4.48297e-07)
(0.293441 -2.7502e-07 -3.56661e-07)
(0.293448 2.15354e-07 4.09184e-07)
(0.293447 -1.80639e-07 -3.41058e-07)
(0.293449 1.78827e-07 3.43884e-07)
(0.293449 -1.78122e-07 -2.12645e-07)
(0.293457 1.35261e-07 2.42703e-07)
(0.293457 -1.01717e-07 -1.48311e-07)
(0.293456 1.22915e-07 1.78638e-07)
(0.29346 -1.94324e-07 -2.00264e-07)
(0.293455 1.7802e-07 1.51137e-07)
(0.293458 -1.32744e-07 -2.89209e-07)
(0.293452 1.47493e-07 2.80166e-07)
(0.293456 -1.74569e-07 -2.51384e-07)
(0.293457 1.51779e-07 2.76373e-07)
(0.293457 -1.46932e-07 -2.67898e-07)
(0.293454 1.41614e-07 2.17054e-07)
(0.293454 -1.41016e-07 -2.27617e-07)
(0.293457 1.22083e-07 2.70844e-07)
(0.293459 -1.11283e-07 -2.08099e-07)
(0.29346 1.23557e-07 2.05076e-07)
(0.293458 -8.29516e-08 -1.18974e-07)
(0.293462 9.59215e-08 1.41888e-07)
(0.293461 -1.28751e-07 -7.18853e-08)
(0.293461 1.31647e-07 6.04635e-08)
(0.29346 -4.2724e-08 -8.10572e-08)
(0.29346 4.44385e-08 1.02875e-07)
(0.293461 -1.66147e-07 -6.28953e-08)
(0.293462 1.28204e-07 3.2177e-08)
(0.29346 -3.1082e-08 -5.25789e-08)
(0.293461 2.56655e-08 4.43537e-08)
(0.293461 -4.21207e-08 -4.95165e-08)
(0.293462 3.9308e-08 5.07168e-08)
(0.293459 -2.87166e-08 -5.59534e-08)
(0.293464 -9.27352e-09 3.0803e-08)
(0.566179 0.0144376 0.0110532)
(0.502538 0.0020729 0.00139357)
(0.366487 0.000113169 -0.000183301)
(0.398348 -5.58851e-05 1.04841e-05)
(0.39428 1.54015e-05 5.72905e-06)
(0.394678 -1.33007e-05 -7.50399e-06)
(0.395614 -1.84005e-06 1.69959e-06)
(0.395484 -1.87472e-06 -1.20064e-06)
(0.395652 -6.84651e-07 2.19903e-07)
(0.395664 -1.75929e-07 -3.30077e-07)
(0.395657 1.12667e-07 4.0935e-07)
(0.395668 -1.84348e-07 -4.0036e-07)
(0.395663 1.70057e-07 4.01908e-07)
(0.395667 -1.9414e-07 -4.30392e-07)
(0.39566 1.66294e-07 4.10483e-07)
(0.395665 -1.71218e-07 -5.12434e-07)
(0.395657 1.70891e-07 4.869e-07)
(0.395659 -2.37432e-07 -3.97338e-07)
(0.395667 1.7857e-07 4.45294e-07)
(0.395667 -1.17494e-07 -3.71412e-07)
(0.395669 1.27013e-07 3.75332e-07)
(0.395669 -1.44113e-07 -2.4e-07)
(0.395678 1.2431e-07 2.63353e-07)
(0.395679 -6.58542e-08 -1.66212e-07)
(0.395678 1.03011e-07 1.84949e-07)
(0.395682 -2.51262e-07 -2.03696e-07)
(0.395676 2.04067e-07 1.76851e-07)
(0.39568 -9.08948e-08 -3.04993e-07)
(0.395673 9.24816e-08 3.02749e-07)
(0.395677 -1.39011e-07 -2.79206e-07)
(0.395678 1.15733e-07 2.99327e-07)
(0.395678 -1.24266e-07 -2.91922e-07)
(0.395675 1.01667e-07 2.42196e-07)
(0.395675 -1.09843e-07 -2.47273e-07)
(0.395678 9.50943e-08 2.91221e-07)
(0.39568 -6.93492e-08 -2.32255e-07)
(0.395681 1.12481e-07 2.26525e-07)
(0.395679 -4.58781e-08 -1.37177e-07)
(0.395684 9.92143e-08 1.41052e-07)
(0.395683 -1.93292e-07 -7.05825e-08)
(0.395683 2.07861e-07 7.22329e-08)
(0.395683 -1.32253e-08 -9.45338e-08)
(0.395682 7.63322e-09 9.58226e-08)
(0.395684 -2.71428e-07 -5.67166e-08)
(0.395685 2.08271e-07 4.84388e-08)
(0.395683 -1.48352e-08 -5.53103e-08)
(0.395684 1.85516e-08 4.61537e-08)
(0.395684 -4.93578e-08 -5.07241e-08)
(0.395685 4.41291e-08 5.79777e-08)
(0.395681 -3.13574e-08 -6.2166e-08)
(0.395688 3.26052e-09 4.17579e-08)
(0.609949 0.0118269 0.0108112)
(0.572307 0.00167535 0.00131689)
(0.438766 0.000213754 -0.000164922)
(0.468326 -5.91796e-05 7.98245e-06)
(0.464623 1.72172e-05 7.04186e-06)
(0.464976 -1.40169e-05 -8.2955e-06)
(0.465928 -3.56267e-06 1.55792e-06)
(0.465807 -2.14634e-06 -1.2476e-06)
(0.46597 -9.45508e-07 1.53934e-07)
(0.465984 -1.7074e-07 -3.12799e-07)
(0.465976 5.24608e-08 3.9027e-07)
(0.465987 -1.20831e-07 -3.92806e-07)
(0.465982 1.02167e-07 3.93177e-07)
(0.465986 -1.38353e-07 -4.17835e-07)
(0.465979 9.94127e-08 3.98667e-07)
(0.465983 -1.04963e-07 -4.92141e-07)
(0.465976 1.02227e-07 4.75181e-07)
(0.465977 -1.71106e-07 -3.95051e-07)
(0.465985 1.27727e-07 4.27451e-07)
(0.465986 -5.39175e-08 -3.594e-07)
(0.465988 7.61272e-08 3.66421e-07)
(0.465988 -8.96796e-08 -2.42309e-07)
(0.465997 9.46096e-08 2.54469e-07)
(0.465998 -2.39199e-08 -1.63713e-07)
(0.465997 7.61256e-08 1.81038e-07)
(0.466002 -3.16271e-07 -1.95914e-07)
(0.465995 2.21489e-07 1.75635e-07)
(0.465999 -4.7599e-08 -2.9047e-07)
(0.465991 4.96677e-08 2.93768e-07)
(0.465996 -8.87238e-08 -2.75133e-07)
(0.465997 6.98314e-08 2.88696e-07)
(0.465997 -9.4502e-08 -2.80258e-07)
(0.465993 6.07796e-08 2.37991e-07)
(0.465993 -6.71054e-08 -2.43302e-07)
(0.465996 6.99711e-08 2.76915e-07)
(0.465999 -2.73421e-08 -2.25029e-07)
(0.466 8.97457e-08 2.21268e-07)
(0.465998 7.2885e-10 -1.38138e-07)
(0.466003 9.37645e-08 1.34999e-07)
(0.466003 -2.7293e-07 -6.95761e-08)
(0.466003 2.77262e-07 7.24077e-08)
(0.466003 2.69888e-08 -9.0792e-08)
(0.466002 -2.65475e-08 9.30943e-08)
(0.466004 -3.92991e-07 -5.81907e-08)
(0.466005 2.78536e-07 5.11754e-08)
(0.466003 1.21148e-08 -5.55431e-08)
(0.466004 1.51562e-08 4.44229e-08)
(0.466004 -6.26028e-08 -4.87018e-08)
(0.466005 5.29801e-08 5.65903e-08)
(0.466 -4.18145e-08 -5.81644e-08)
(0.466007 7.19944e-09 3.60953e-08)
(0.631347 0.00865227 0.0106578)
(0.614501 0.00112084 0.00118813)
(0.488167 0.000215177 -0.000161658)
(0.516087 -4.7249e-05 6.95781e-06)
(0.512478 1.68065e-05 9.06972e-06)
(0.51277 -1.20148e-05 -8.77218e-06)
(0.513685 -4.03366e-06 1.41648e-06)
(0.513564 -2.00967e-06 -1.30811e-06)
(0.513716 -9.41362e-07 1.15182e-07)
(0.51373 -1.63097e-07 -3.02005e-07)
(0.513721 1.60054e-08 3.85691e-07)
(0.513733 -7.50711e-08 -3.91615e-07)
(0.513727 5.07984e-08 3.91841e-07)
(0.513731 -9.52057e-08 -4.15557e-07)
(0.513724 5.87662e-08 3.94448e-07)
(0.513729 -5.42643e-08 -4.93295e-07)
(0.513721 6.10581e-08 4.77014e-07)
(0.513722 -1.1765e-07 -3.93881e-07)
(0.51373 8.84725e-08 4.25263e-07)
(0.513731 -1.25444e-08 -3.58709e-07)
(0.513733 4.23454e-08 3.68617e-07)
(0.513733 -4.69267e-08 -2.42152e-07)
(0.513742 6.55408e-08 2.53497e-07)
(0.513743 1.50639e-09 -1.60743e-07)
(0.513742 4.84939e-08 1.79383e-07)
(0.513746 -3.62777e-07 -1.98631e-07)
(0.51374 2.46714e-07 1.73854e-07)
(0.513744 -8.11452e-09 -2.90831e-07)
(0.513736 2.7497e-08 2.94547e-07)
(0.51374 -5.07466e-08 -2.73646e-07)
(0.513741 3.07075e-08 2.87577e-07)
(0.513742 -7.36291e-08 -2.7815e-07)
(0.513738 4.04451e-08 2.35297e-07)
(0.513737 -2.83692e-08 -2.4546e-07)
(0.51374 5.24626e-08 2.77984e-07)
(0.513743 -5.64073e-09 -2.21868e-07)
(0.513744 6.88345e-08 2.2081e-07)
(0.513743 3.27311e-08 -1.36756e-07)
(0.513747 7.49391e-08 1.3447e-07)
(0.513747 -3.41065e-07 -7.16049e-08)
(0.513747 3.32517e-07 7.43693e-08)
(0.513747 5.91713e-08 -8.68102e-08)
(0.513747 -6.39082e-08 9.11259e-08)
(0.513748 -4.87461e-07 -6.30952e-08)
(0.513749 3.36128e-07 5.32895e-08)
(0.513747 4.03138e-08 -5.44033e-08)
(0.513748 1.45555e-08 4.35017e-08)
(0.513748 -7.46648e-08 -4.8824e-08)
(0.51375 6.27801e-08 5.60635e-08)
(0.513745 -4.87936e-08 -5.86846e-08)
(0.513752 9.97859e-09 3.54722e-08)
(0.641483 0.00526007 0.010561)
(0.638322 0.000611963 0.00107405)
(0.518795 0.000148155 -0.000168297)
(0.546084 -2.9423e-05 5.64397e-06)
(0.542457 1.24236e-05 1.11449e-05)
(0.542679 -7.83149e-06 -8.94406e-06)
(0.543545 -3.08787e-06 1.31801e-06)
(0.543416 -1.40372e-06 -1.35228e-06)
(0.543559 -6.81189e-07 9.10163e-08)
(0.54357 -1.23832e-07 -2.96026e-07)
(0.543561 -1.87854e-08 3.83019e-07)
(0.543573 -3.12882e-08 -3.91649e-07)
(0.543567 1.415e-09 3.91767e-07)
(0.543571 -4.91889e-08 -4.14841e-07)
(0.543564 2.29118e-08 3.92088e-07)
(0.543568 7.29758e-11 -4.94705e-07)
(0.543561 1.8881e-08 4.82091e-07)
(0.543562 -6.36267e-08 -3.94974e-07)
(0.54357 4.60584e-08 4.23478e-07)
(0.543571 2.62783e-08 -3.59944e-07)
(0.543572 9.73182e-09 3.72726e-07)
(0.543572 -5.93658e-09 -2.4302e-07)
(0.543581 3.58311e-08 2.52982e-07)
(0.543582 2.14024e-08 -1.58627e-07)
(0.543581 2.3398e-08 1.7768e-07)
(0.543585 -3.78308e-07 -2.02893e-07)
(0.543579 2.60502e-07 1.73097e-07)
(0.543583 3.35224e-08 -2.90188e-07)
(0.543575 4.69045e-09 2.97193e-07)
(0.543579 -1.52095e-08 -2.73931e-07)
(0.54358 -1.1279e-08 2.87094e-07)
(0.543581 -4.94596e-08 -2.77422e-07)
(0.543577 2.4751e-08 2.33468e-07)
(0.543576 1.15383e-08 -2.47559e-07)
(0.543579 3.01782e-08 2.80232e-07)
(0.543582 1.1522e-08 -2.20681e-07)
(0.543583 4.37644e-08 2.21364e-07)
(0.543582 5.72182e-08 -1.34937e-07)
(0.543586 5.15116e-08 1.34183e-07)
(0.543586 -3.84128e-07 -7.60273e-08)
(0.543586 3.62749e-07 7.64272e-08)
(0.543586 8.70855e-08 -8.03899e-08)
(0.543586 -9.46448e-08 9.00033e-08)
(0.543587 -5.43408e-07 -7.17667e-08)
(0.543588 3.67395e-07 5.52083e-08)
(0.543586 6.39732e-08 -5.16516e-08)
(0.543587 1.41286e-08 4.30944e-08)
(0.543587 -8.08229e-08 -4.95613e-08)
(0.543589 6.63846e-08 5.62446e-08)
(0.543584 -4.69075e-08 -5.92668e-08)
(0.543591 1.02839e-08 3.53516e-08)
(0.645505 0.0017631 0.0105116)
(0.649016 0.00019076 0.00100934)
(0.533396 5.18342e-05 -0.000174834)
(0.560581 -1.01784e-05 4.48082e-06)
(0.556932 4.19412e-06 1.24118e-05)
(0.557107 -2.40898e-06 -8.95575e-06)
(0.55794 -1.1017e-06 1.27309e-06)
(0.557804 -4.27043e-07 -1.37152e-06)
(0.557942 -2.30728e-07 7.87707e-08)
(0.557951 -5.58098e-08 -2.92861e-07)
(0.557943 -4.85355e-08 3.79133e-07)
(0.557954 1.11347e-08 -3.90237e-07)
(0.557948 -4.48604e-08 3.90301e-07)
(0.557952 -2.88338e-09 -4.12803e-07)
(0.557945 -1.08024e-08 3.88889e-07)
(0.557949 4.83498e-08 -4.9259e-07)
(0.557942 -2.50216e-08 4.85589e-07)
(0.557944 -5.60758e-09 -3.95796e-07)
(0.557951 7.52018e-09 4.19231e-07)
(0.557952 6.18459e-08 -3.59373e-07)
(0.557953 -2.00524e-08 3.75531e-07)
(0.557953 3.73213e-08 -2.43581e-07)
(0.557962 1.00771e-08 2.51481e-07)
(0.557963 3.99943e-08 -1.56552e-07)
(0.557962 2.23769e-09 1.76058e-07)
(0.557966 -3.61541e-07 -2.07065e-07)
(0.557959 2.5405e-07 1.72494e-07)
(0.557963 6.64609e-08 -2.86769e-07)
(0.557956 -1.99967e-08 2.9873e-07)
(0.55796 1.93262e-08 -2.74031e-07)
(0.557961 -5.10161e-08 2.85135e-07)
(0.557961 -2.36951e-08 -2.75455e-07)
(0.557957 8.8758e-09 2.31193e-07)
(0.557957 4.88575e-08 -2.48281e-07)
(0.55796 9.03419e-09 2.80556e-07)
(0.557962 2.70172e-08 -2.19029e-07)
(0.557964 1.66012e-08 2.2124e-07)
(0.557963 7.66193e-08 -1.32625e-07)
(0.557967 2.92916e-08 1.33439e-07)
(0.557966 -3.92889e-07 -8.19373e-08)
(0.557967 3.63705e-07 7.84698e-08)
(0.557967 1.06139e-07 -7.19665e-08)
(0.557967 -1.15289e-07 8.93401e-08)
(0.557967 -5.50888e-07 -8.29986e-08)
(0.557968 3.67361e-07 5.70452e-08)
(0.557967 7.94771e-08 -4.79036e-08)
(0.557968 1.23323e-08 4.29721e-08)
(0.557967 -7.98798e-08 -5.05571e-08)
(0.557969 6.26186e-08 5.65124e-08)
(0.557964 -3.87184e-08 -5.90927e-08)
(0.557971 1.06115e-08 3.42474e-08)
(0.645505 -0.00176278 0.0105116)
(0.649016 -0.000190731 0.00100934)
(0.533396 -5.15124e-05 -0.00017484)
(0.560581 9.31924e-06 4.49347e-06)
(0.556932 -5.58897e-06 1.23941e-05)
(0.557107 3.36926e-06 -8.94659e-06)
(0.55794 1.25512e-06 1.27168e-06)
(0.557805 6.8235e-07 -1.367e-06)
(0.557942 2.8788e-07 8.02075e-08)
(0.557952 2.30447e-08 -2.92168e-07)
(0.557943 -7.125e-08 3.74942e-07)
(0.557954 5.13211e-08 -3.87509e-07)
(0.557949 -8.58041e-08 3.87451e-07)
(0.557953 4.1287e-08 -4.09731e-07)
(0.557945 -4.23723e-08 3.85176e-07)
(0.55795 8.82524e-08 -4.88936e-07)
(0.557943 -6.73198e-08 4.86289e-07)
(0.557944 5.35349e-08 -3.95239e-07)
(0.557951 -2.61866e-08 4.14528e-07)
(0.557952 9.20193e-08 -3.57363e-07)
(0.557954 -4.63756e-08 3.76477e-07)
(0.557954 7.97073e-08 -2.43083e-07)
(0.557962 -1.23595e-08 2.49558e-07)
(0.557964 5.6374e-08 -1.54325e-07)
(0.557963 -1.54411e-08 1.73938e-07)
(0.557966 -3.15184e-07 -2.09693e-07)
(0.55796 2.26026e-07 1.71839e-07)
(0.557964 8.88434e-08 -2.8252e-07)
(0.557956 -4.45288e-08 2.98702e-07)
(0.55796 5.19244e-08 -2.73372e-07)
(0.557962 -8.51832e-08 2.82396e-07)
(0.557962 2.57108e-09 -2.72543e-07)
(0.557958 -7.50985e-09 2.28528e-07)
(0.557958 8.16157e-08 -2.48066e-07)
(0.55796 -9.9846e-09 2.7973e-07)
(0.557963 3.9886e-08 -2.16609e-07)
(0.557964 -1.06852e-08 2.20178e-07)
(0.557963 9.01449e-08 -1.30182e-07)
(0.557968 9.4904e-09 1.31507e-07)
(0.557966 -3.67515e-07 -8.6601e-08)
(0.557967 3.34842e-07 8.01988e-08)
(0.557968 1.13736e-07 -6.36125e-08)
(0.557968 -1.23739e-07 8.73124e-08)
(0.557967 -5.10525e-07 -9.23054e-08)
(0.557969 3.36529e-07 5.86212e-08)
(0.557967 8.54695e-08 -4.3803e-08)
(0.557968 8.7681e-09 4.2703e-08)
(0.557968 -7.2114e-08 -5.13763e-08)
(0.55797 5.30078e-08 5.6349e-08)
(0.557965 -2.65389e-08 -5.82736e-08)
(0.557972 1.0817e-08 3.25088e-08)
(0.641482 -0.00525977 0.010561)
(0.638323 -0.000611908 0.00107405)
(0.518796 -0.000147853 -0.00016832)
(0.546084 2.86423e-05 5.67843e-06)
(0.542457 -1.37614e-05 1.1095e-05)
(0.542679 8.73565e-06 -8.91695e-06)
(0.543544 3.2226e-06 1.31363e-06)
(0.543416 1.63121e-06 -1.3385e-06)
(0.54356 7.2906e-07 9.47064e-08)
(0.543572 9.13191e-08 -2.93932e-07)
(0.543563 -8.81297e-08 3.70578e-07)
(0.543574 8.99925e-08 -3.83479e-07)
(0.543569 -1.21205e-07 3.83306e-07)
(0.543572 8.30234e-08 -4.05628e-07)
(0.543565 -7.3004e-08 3.81105e-07)
(0.54357 1.23288e-07 -4.83511e-07)
(0.543562 -1.06152e-07 4.83716e-07)
(0.543564 1.10036e-07 -3.93224e-07)
(0.543571 -5.86554e-08 4.09395e-07)
(0.543572 1.16877e-07 -3.53725e-07)
(0.543573 -7.09632e-08 3.75023e-07)
(0.543574 1.16476e-07 -2.41588e-07)
(0.543582 -3.52603e-08 2.47066e-07)
(0.543584 6.90269e-08 -1.52048e-07)
(0.543583 -3.22064e-08 1.71392e-07)
(0.543585 -2.44432e-07 -2.1023e-07)
(0.54358 1.78529e-07 1.71276e-07)
(0.543584 1.04632e-07 -2.77661e-07)
(0.543576 -6.72394e-08 2.96792e-07)
(0.543581 8.21767e-08 -2.71942e-07)
(0.543582 -1.13088e-07 2.78878e-07)
(0.543582 2.99098e-08 -2.68684e-07)
(0.543578 -2.4457e-08 2.25778e-07)
(0.543578 1.09848e-07 -2.4666e-07)
(0.543581 -2.90892e-08 2.77412e-07)
(0.543583 4.96977e-08 -2.13643e-07)
(0.543584 -3.73057e-08 2.18153e-07)
(0.543583 9.69464e-08 -1.27855e-07)
(0.543588 -1.01205e-08 1.28466e-07)
(0.543586 -3.13196e-07 -8.92554e-08)
(0.543587 2.78916e-07 8.13437e-08)
(0.543588 1.10019e-07 -5.64336e-08)
(0.543588 -1.21308e-07 8.42357e-08)
(0.543587 -4.29597e-07 -9.83209e-08)
(0.543589 2.79734e-07 5.96894e-08)
(0.543587 8.30534e-08 -4.00511e-08)
(0.543589 3.4817e-09 4.22227e-08)
(0.543588 -5.84307e-08 -5.18935e-08)
(0.54359 3.98043e-08 5.57796e-08)
(0.543585 -1.23217e-08 -5.68396e-08)
(0.543592 9.30534e-09 3.0255e-08)
(0.631347 -0.00865201 0.0106579)
(0.614502 -0.00112075 0.00118814)
(0.48817 -0.000214905 -0.000161705)
(0.516088 4.66216e-05 7.01011e-06)
(0.512478 -1.80344e-05 8.99628e-06)
(0.512771 1.28109e-05 -8.72897e-06)
(0.513685 4.13217e-06 1.40995e-06)
(0.513565 2.18344e-06 -1.28581e-06)
(0.513718 9.74425e-07 1.19432e-07)
(0.513732 1.32843e-07 -2.99145e-07)
(0.513724 -9.946e-08 3.6645e-07)
(0.513735 1.26886e-07 -3.7876e-07)
(0.513729 -1.50841e-07 3.78613e-07)
(0.513733 1.20493e-07 -4.00974e-07)
(0.513726 -1.0343e-07 3.77863e-07)
(0.513731 1.51354e-07 -4.75051e-07)
(0.513723 -1.37618e-07 4.78223e-07)
(0.513725 1.61813e-07 -3.91466e-07)
(0.513732 -9.00422e-08 4.03656e-07)
(0.513733 1.35035e-07 -3.48769e-07)
(0.513734 -9.24553e-08 3.70929e-07)
(0.513735 1.46043e-07 -2.40553e-07)
(0.513743 -5.92989e-08 2.44012e-07)
(0.513745 7.80359e-08 -1.50949e-07)
(0.513744 -4.96966e-08 1.68806e-07)
(0.513747 -1.59359e-07 -2.08491e-07)
(0.513741 1.15132e-07 1.71742e-07)
(0.513746 1.13582e-07 -2.71353e-07)
(0.513738 -8.49225e-08 2.93085e-07)
(0.513742 1.10053e-07 -2.70831e-07)
(0.513743 -1.32782e-07 2.74973e-07)
(0.513743 5.65693e-08 -2.64695e-07)
(0.513739 -4.33006e-08 2.23936e-07)
(0.513739 1.31635e-07 -2.43411e-07)
(0.513742 -4.61732e-08 2.73191e-07)
(0.513745 5.70934e-08 -2.11636e-07)
(0.513746 -6.13978e-08 2.1565e-07)
(0.513745 9.84757e-08 -1.26397e-07)
(0.51375 -2.93609e-08 1.24393e-07)
(0.513748 -2.38683e-07 -8.99876e-08)
(0.513749 2.03106e-07 8.20062e-08)
(0.51375 9.69346e-08 -5.1941e-08)
(0.51375 -1.09795e-07 8.01206e-08)
(0.513748 -3.21256e-07 -1.00021e-07)
(0.51375 2.05059e-07 6.05762e-08)
(0.513749 7.46847e-08 -3.72475e-08)
(0.51375 -2.96153e-09 4.16741e-08)
(0.51375 -4.07671e-08 -5.20266e-08)
(0.513752 2.55512e-08 5.53915e-08)
(0.513746 4.84756e-10 -5.48598e-08)
(0.513754 6.60893e-09 2.75658e-08)
(0.609948 -0.0118267 0.0108112)
(0.572308 -0.00167523 0.00131691)
(0.43877 -0.000213531 -0.000164982)
(0.468328 5.87758e-05 8.04159e-06)
(0.464623 -1.82873e-05 6.95507e-06)
(0.464977 1.46592e-05 -8.23933e-06)
(0.465927 3.60879e-06 1.55014e-06)
(0.465808 2.25234e-06 -1.22162e-06)
(0.465972 9.61558e-07 1.5971e-07)
(0.465987 1.50223e-07 -3.09927e-07)
(0.465978 -1.10701e-07 3.66404e-07)
(0.46599 1.65372e-07 -3.76135e-07)
(0.465984 -1.79611e-07 3.76576e-07)
(0.465988 1.55831e-07 -3.99552e-07)
(0.465981 -1.40573e-07 3.78812e-07)
(0.465986 1.70585e-07 -4.71212e-07)
(0.465978 -1.64666e-07 4.77341e-07)
(0.46598 2.15145e-07 -3.92335e-07)
(0.465988 -1.2144e-07 4.00756e-07)
(0.465988 1.49606e-07 -3.47075e-07)
(0.46599 -1.11535e-07 3.69733e-07)
(0.46599 1.74707e-07 -2.40766e-07)
(0.465999 -8.37782e-08 2.41767e-07)
(0.466 8.91285e-08 -1.51013e-07)
(0.466 -7.14393e-08 1.66459e-07)
(0.466002 -6.90125e-08 -2.05423e-07)
(0.465997 3.73297e-08 1.73211e-07)
(0.466002 1.13888e-07 -2.68817e-07)
(0.465994 -9.92024e-08 2.92614e-07)
(0.465998 1.40104e-07 -2.71971e-07)
(0.465999 -1.45539e-07 2.72941e-07)
(0.465999 8.30438e-08 -2.62916e-07)
(0.465995 -7.04313e-08 2.24079e-07)
(0.465995 1.45786e-07 -2.41699e-07)
(0.465999 -5.88584e-08 2.72122e-07)
(0.466001 6.86583e-08 -2.12513e-07)
(0.466002 -8.27336e-08 2.1444e-07)
(0.466001 1.00734e-07 -1.25676e-07)
(0.466006 -4.70685e-08 1.20177e-07)
(0.466003 -1.50961e-07 -8.80121e-08)
(0.466004 1.16952e-07 8.15993e-08)
(0.466005 7.93954e-08 -5.04132e-08)
(0.466005 -9.25253e-08 7.58044e-08)
(0.466004 -2.00103e-07 -9.70311e-08)
(0.466006 1.21902e-07 6.06854e-08)
(0.466004 6.41189e-08 -3.55315e-08)
(0.466006 -1.07256e-08 4.1091e-08)
(0.466005 -2.05914e-08 -5.18308e-08)
(0.466007 1.06994e-08 5.55496e-08)
(0.466002 8.64344e-09 -5.32836e-08)
(0.466009 5.96215e-09 2.60628e-08)
(0.566179 -0.0144375 0.0110532)
(0.50254 -0.00207277 0.0013936)
(0.366491 -0.000113035 -0.000183372)
(0.39835 5.57568e-05 1.05598e-05)
(0.39428 -1.62624e-05 5.6326e-06)
(0.394678 1.3746e-05 -7.43317e-06)
(0.395613 1.83656e-06 1.68273e-06)
(0.395486 1.91805e-06 -1.17287e-06)
(0.395654 6.84297e-07 2.27046e-07)
(0.395667 1.67113e-07 -3.20422e-07)
(0.395659 -1.47335e-07 3.76019e-07)
(0.395671 2.16002e-07 -3.76111e-07)
(0.395665 -2.23616e-07 3.78794e-07)
(0.395668 2.05221e-07 -4.04992e-07)
(0.395662 -1.99527e-07 3.82571e-07)
(0.395667 2.11037e-07 -4.89192e-07)
(0.39566 -2.19641e-07 4.90287e-07)
(0.395661 2.7451e-07 -3.87899e-07)
(0.395669 -1.69891e-07 4.07836e-07)
(0.395669 1.81512e-07 -3.55673e-07)
(0.395671 -1.51567e-07 3.80292e-07)
(0.395671 2.05095e-07 -2.35517e-07)
(0.39568 -1.17516e-07 2.44052e-07)
(0.395681 1.11192e-07 -1.49915e-07)
(0.39568 -1.10152e-07 1.62385e-07)
(0.395683 3.48334e-08 -2.01566e-07)
(0.395678 -4.83025e-08 1.70422e-07)
(0.395682 1.27978e-07 -2.83623e-07)
(0.395675 -1.32249e-07 3.02594e-07)
(0.395679 1.78205e-07 -2.71387e-07)
(0.395681 -1.67131e-07 2.76841e-07)
(0.39568 1.21563e-07 -2.65957e-07)
(0.395677 -1.13258e-07 2.22702e-07)
(0.395677 1.62673e-07 -2.47593e-07)
(0.39568 -8.51159e-08 2.85329e-07)
(0.395682 9.71224e-08 -2.14452e-07)
(0.395683 -1.09566e-07 2.15805e-07)
(0.395681 1.08635e-07 -1.23438e-07)
(0.395686 -7.63271e-08 1.18631e-07)
(0.395684 -4.48448e-08 -8.07876e-08)
(0.395685 3.02373e-08 7.80648e-08)
(0.395686 6.45297e-08 -5.26118e-08)
(0.395685 -9.23475e-08 7.47743e-08)
(0.395684 -6.48557e-08 -8.8547e-08)
(0.395686 4.26117e-08 5.81474e-08)
(0.395685 5.76464e-08 -3.49157e-08)
(0.395686 -2.32069e-08 4.00225e-08)
(0.395686 5.39777e-09 -5.11127e-08)
(0.395687 -8.87674e-09 5.45607e-08)
(0.395683 1.63198e-08 -5.40956e-08)
(0.395689 1.03626e-08 3.16545e-08)
(0.474607 -0.0144424 0.0109565)
(0.388531 -0.00186271 0.00127612)
(0.264729 2.58862e-05 -0.000192044)
(0.296709 3.27816e-05 1.54076e-05)
(0.292171 -1.26309e-05 4.46523e-06)
(0.292608 9.97837e-06 -6.22275e-06)
(0.29342 -1.07852e-07 1.65834e-06)
(0.293283 1.29193e-06 -1.0605e-06)
(0.293439 2.66873e-07 2.47858e-07)
(0.293446 1.76981e-07 -2.8807e-07)
(0.29344 -1.85723e-07 3.36851e-07)
(0.293449 2.42941e-07 -3.37215e-07)
(0.293445 -2.47487e-07 3.37942e-07)
(0.293448 2.33287e-07 -3.61852e-07)
(0.293442 -2.43508e-07 3.46288e-07)
(0.293446 2.47901e-07 -4.38462e-07)
(0.293441 -2.75302e-07 4.37029e-07)
(0.293442 2.93955e-07 -3.46904e-07)
(0.293449 -2.02324e-07 3.6425e-07)
(0.293449 2.09779e-07 -3.23163e-07)
(0.29345 -1.87729e-07 3.33955e-07)
(0.29345 2.09876e-07 -2.14283e-07)
(0.293458 -1.30041e-07 2.11777e-07)
(0.293458 1.26003e-07 -1.39484e-07)
(0.293458 -1.31626e-07 1.3232e-07)
(0.29346 1.08349e-07 -1.66023e-07)
(0.293456 -1.10342e-07 1.59821e-07)
(0.29346 1.44736e-07 -2.53093e-07)
(0.293454 -1.69246e-07 2.7159e-07)
(0.293458 1.9401e-07 -2.41086e-07)
(0.293459 -1.74653e-07 2.45703e-07)
(0.293458 1.4554e-07 -2.35737e-07)
(0.293455 -1.47856e-07 2.022e-07)
(0.293456 1.65869e-07 -2.21838e-07)
(0.293459 -1.11354e-07 2.54113e-07)
(0.29346 1.24143e-07 -1.92503e-07)
(0.293461 -1.20425e-07 1.86991e-07)
(0.293459 1.1047e-07 -1.15694e-07)
(0.293463 -9.05246e-08 9.12636e-08)
(0.293461 4.0525e-08 -5.87197e-08)
(0.293462 -3.01091e-08 6.84897e-08)
(0.293462 5.76072e-08 -5.73236e-08)
(0.293462 -9.28463e-08 4.86892e-08)
(0.293461 3.58888e-08 -5.57487e-08)
(0.293463 -1.46732e-08 5.68162e-08)
(0.293461 4.98644e-08 -3.0231e-08)
(0.293463 -3.13277e-08 3.27629e-08)
(0.293462 2.63658e-08 -4.12923e-08)
(0.293463 -2.55086e-08 4.52413e-08)
(0.29346 2.34385e-08 -4.37824e-08)
(0.293465 1.76341e-08 2.83773e-08)
(0.267438 -0.00700744 0.00700748)
(0.19343 -0.000595036 0.000595128)
(0.118681 0.000117984 -0.000118026)
(0.14016 -1.61203e-05 1.62958e-05)
(0.136559 -1.27532e-06 9.56284e-07)
(0.136915 3.07032e-06 -2.97515e-06)
(0.137383 -9.99453e-07 9.7831e-07)
(0.137274 5.50036e-07 -5.79791e-07)
(0.137373 -1.04837e-07 1.11257e-07)
(0.137373 1.0342e-07 -1.08889e-07)
(0.13737 -1.10309e-07 1.20144e-07)
(0.137375 1.28407e-07 -1.3382e-07)
(0.137373 -1.34556e-07 1.34641e-07)
(0.137374 1.32087e-07 -1.40605e-07)
(0.137372 -1.37524e-07 1.38656e-07)
(0.137374 1.42913e-07 -1.53536e-07)
(0.137371 -1.56319e-07 1.51936e-07)
(0.137371 1.49708e-07 -1.473e-07)
(0.137376 -1.21541e-07 1.38022e-07)
(0.137375 1.16558e-07 -1.21269e-07)
(0.137377 -1.10933e-07 1.15148e-07)
(0.137376 1.02673e-07 -9.8906e-08)
(0.137381 -7.75235e-08 8.03463e-08)
(0.13738 6.85254e-08 -6.45665e-08)
(0.13738 -7.46767e-08 4.49171e-08)
(0.137382 7.63026e-08 -5.26717e-08)
(0.13738 -7.09089e-08 7.72008e-08)
(0.137381 8.2631e-08 -8.41687e-08)
(0.137378 -9.65407e-08 9.30365e-08)
(0.13738 9.98863e-08 -9.73474e-08)
(0.137381 -9.26052e-08 9.24801e-08)
(0.13738 8.36384e-08 -8.70019e-08)
(0.137379 -8.47246e-08 8.49965e-08)
(0.137379 8.52666e-08 -8.45688e-08)
(0.137381 -7.01547e-08 8.51903e-08)
(0.137382 6.93521e-08 -7.22298e-08)
(0.137382 -6.53889e-08 6.89217e-08)
(0.137381 5.5396e-08 -5.64152e-08)
(0.137384 -5.14118e-08 2.26458e-08)
(0.137382 4.27664e-08 -1.29739e-08)
(0.137383 -2.95982e-08 3.22462e-08)
(0.137383 2.63179e-08 -3.21423e-08)
(0.137383 -4.63657e-08 -2.73734e-09)
(0.137382 4.2282e-08 -3.57617e-09)
(0.137384 -2.00395e-08 3.40343e-08)
(0.137382 2.28997e-08 -1.23296e-08)
(0.137383 -1.92575e-08 1.05464e-08)
(0.137383 1.83819e-08 -1.0614e-08)
(0.137384 -1.56049e-08 1.21362e-08)
(0.137382 1.02379e-08 -6.30479e-09)
(0.137385 1.11216e-08 1.07215e-08)
(0.474607 0.0109565 0.0144425)
(0.38853 0.00127609 0.00186278)
(0.264727 -0.000191975 -2.56629e-05)
(0.296708 1.52309e-05 -3.27024e-05)
(0.292172 4.66135e-06 1.19608e-05)
(0.292607 -6.29971e-06 -9.77635e-06)
(0.29342 1.68488e-06 7.57878e-08)
(0.293282 -1.10046e-06 -1.30241e-06)
(0.293437 2.4684e-07 -2.53324e-07)
(0.293444 -3.03381e-07 -1.865e-07)
(0.293438 3.82433e-07 1.82226e-07)
(0.293448 -3.63942e-07 -2.35661e-07)
(0.293444 3.65099e-07 2.38053e-07)
(0.293446 -3.97527e-07 -2.30799e-07)
(0.293441 3.80163e-07 2.21732e-07)
(0.293445 -4.76128e-07 -2.53964e-07)
(0.293439 4.43754e-07 2.66334e-07)
(0.293441 -3.57912e-07 -2.757e-07)
(0.293448 4.17234e-07 2.0257e-07)
(0.293447 -3.41556e-07 -1.90299e-07)
(0.293449 3.38827e-07 1.95984e-07)
(0.293449 -2.14128e-07 -1.79544e-07)
(0.293457 2.41743e-07 1.31167e-07)
(0.293457 -1.55193e-07 -7.9051e-08)
(0.293456 1.56551e-07 1.46603e-07)
(0.29346 -2.03822e-07 -1.2238e-07)
(0.293455 1.89884e-07 7.12022e-08)
(0.293458 -2.87707e-07 -1.45302e-07)
(0.293452 2.77829e-07 1.54335e-07)
(0.293456 -2.51338e-07 -1.79737e-07)
(0.293457 2.76919e-07 1.49493e-07)
(0.293457 -2.74227e-07 -1.25403e-07)
(0.293454 2.2228e-07 1.35333e-07)
(0.293454 -2.23405e-07 -1.5761e-07)
(0.293457 2.74771e-07 1.16061e-07)
(0.293459 -2.11313e-07 -1.10372e-07)
(0.29346 2.02576e-07 1.28706e-07)
(0.293458 -1.22649e-07 -7.99721e-08)
(0.293462 1.16914e-07 1.19915e-07)
(0.293461 -7.79527e-08 -4.40374e-08)
(0.293461 9.8811e-08 7.58995e-09)
(0.29346 -9.70536e-08 -1.93619e-08)
(0.29346 5.62734e-08 1.23134e-07)
(0.293461 -6.27087e-08 -7.52949e-08)
(0.293462 8.48914e-08 -2.16937e-08)
(0.29346 -4.8472e-08 -4.26627e-08)
(0.293461 3.84922e-08 2.53532e-08)
(0.293461 -5.1139e-08 -2.40803e-08)
(0.293462 5.62407e-08 1.44652e-08)
(0.293459 -5.92749e-08 -1.28578e-08)
(0.293464 3.76923e-08 -2.0361e-08)
(0.94209 0.0246117 0.0246117)
(0.878074 0.00456405 0.00456428)
(0.653083 7.7945e-05 7.79174e-05)
(0.698991 -9.87082e-05 -9.85138e-05)
(0.694678 1.61466e-05 1.6034e-05)
(0.695207 -1.88532e-05 -1.8739e-05)
(0.696659 -1.36142e-06 -1.35928e-06)
(0.696572 -2.49959e-06 -2.52082e-06)
(0.696817 -7.87474e-07 -7.35234e-07)
(0.696839 -3.20924e-07 -3.48865e-07)
(0.696834 1.95076e-07 2.38668e-07)
(0.69685 -3.27986e-07 -3.48426e-07)
(0.696841 3.29618e-07 3.66174e-07)
(0.696848 -3.2111e-07 -3.2575e-07)
(0.696838 3.02431e-07 3.09685e-07)
(0.696845 -2.84875e-07 -3.4916e-07)
(0.696835 3.75146e-07 4.35143e-07)
(0.696841 -4.30904e-07 -4.61501e-07)
(0.69685 2.00334e-07 1.92094e-07)
(0.696851 -1.77575e-07 -2.21127e-07)
(0.696851 2.42823e-07 2.97154e-07)
(0.696854 -2.64773e-07 -2.96158e-07)
(0.696862 1.63881e-07 9.7295e-08)
(0.696864 -1.08273e-07 -1.68984e-08)
(0.696859 4.31596e-07 2.32988e-07)
(0.696867 -5.26744e-07 -1.9568e-07)
(0.696859 2.03221e-07 9.68168e-08)
(0.696865 -1.63537e-07 -1.68816e-07)
(0.696857 1.99775e-07 2.39043e-07)
(0.696864 -2.61649e-07 -2.85211e-07)
(0.696864 1.61289e-07 1.33634e-07)
(0.696865 -1.47797e-07 -5.88522e-08)
(0.69686 1.85088e-07 2.05045e-07)
(0.696863 -1.97519e-07 -2.47816e-07)
(0.696867 8.09821e-08 9.87012e-08)
(0.696869 -1.12237e-07 -9.81022e-08)
(0.696868 1.728e-07 1.60876e-07)
(0.696866 -7.76049e-08 -8.78809e-08)
(0.696866 4.12696e-07 1.52455e-07)
(0.696867 -4.4481e-07 -5.07641e-08)
(0.696866 1.88524e-07 -3.29909e-08)
(0.696865 2.94187e-08 5.49241e-08)
(0.696863 4.45493e-07 2.33634e-07)
(0.696867 -6.63906e-07 -2.31106e-07)
(0.696868 1.10998e-07 -5.55742e-08)
(0.696866 -9.50424e-08 -3.31991e-08)
(0.696867 8.11674e-08 2.79635e-08)
(0.696867 -1.15989e-07 -3.59572e-08)
(0.696869 6.16661e-08 -2.69752e-10)
(0.696862 -3.99064e-08 5.33957e-09)
(0.696858 -1.93977e-07 -1.75741e-07)
(1.17615 0.0268918 0.02746)
(1.19154 0.00606774 0.00585343)
(0.941614 0.000490247 0.000285766)
(0.981547 -0.00015301 -0.000135437)
(0.979119 1.01576e-05 1.08349e-05)
(0.979593 -2.69528e-05 -2.45139e-05)
(0.981282 -6.89544e-06 -3.29292e-06)
(0.981254 -4.06257e-06 -3.38503e-06)
(0.981514 -1.71495e-06 -1.10908e-06)
(0.98155 -4.22021e-07 -4.67262e-07)