/*--------------------------------*- C++ -*----------------------------------*\
  =========                 |
  \\      /  F ield         | OpenFOAM: The Open Source CFD Toolbox
   \\    /   O peration     | Website:  https://openfoam.org
    \\  /    A nd           | Version:  13
     \\/     M anipulation  |
\*---------------------------------------------------------------------------*/
FoamFile
{
    format      ascii;
    class       surfaceScalarField;
    location    "28";
    object      phi;
}
// * * * * * * * * * * * * * * * * * * * * * * * * * * * * * * * * * * * * * //

dimensions      [0 3 -1 0 0 0 0];

internalField   nonuniform List<scalar> 
28364
(
8.54927e-13
3.82509e-12
3.82509e-12
6.07416e-13
1.23758e-13
1.23757e-13
7.59578e-13
-7.60813e-14
-7.60786e-14
6.62113e-13
4.87308e-14
4.87304e-14
7.26717e-13
-3.22995e-14
-3.23019e-14
6.83703e-13
2.14881e-14
2.14858e-14
7.12504e-13
-1.43749e-14
-1.43735e-14
6.93146e-13
9.66321e-15
9.65806e-15
7.05936e-13
-6.39077e-15
-6.38796e-15
6.97935e-13
4.04177e-15
4.04332e-15
7.02635e-13
-2.38457e-15
-2.39041e-15
7.00182e-13
1.28199e-15
1.28309e-15
7.01291e-13
-6.09238e-16
-6.10208e-16
7.00907e-13
2.20202e-16
2.21463e-16
7.00943e-13
-3.74608e-17
-3.5842e-17
7.01031e-13
-4.33943e-17
-4.24449e-17
7.00888e-13
6.33593e-17
6.36669e-17
7.01031e-13
-7.34923e-17
-7.36018e-17
7.00879e-13
7.77084e-17
7.83535e-17
7.01031e-13
-7.71047e-17
-7.7572e-17
7.0087e-13
7.81144e-17
7.76941e-17
7.01031e-13
-7.70584e-17
-7.76627e-17
7.0087e-13
7.69611e-17
7.64977e-17
7.01026e-13
-7.17155e-17
-7.10437e-17
7.0087e-13
6.92413e-17
6.87351e-17
7.01019e-13
-6.78021e-17
-6.61282e-17
7.00881e-13
6.57271e-17
6.60151e-17
7.01008e-13
-6.20998e-17
-6.1977e-17
7.00892e-13
5.55441e-17
5.57281e-17
7.00992e-13
-4.84096e-17
-4.8513e-17
7.00903e-13
4.26403e-17
4.23034e-17
7.00984e-13
-3.96826e-17
-3.8693e-17
7.00903e-13
3.88502e-17
3.91818e-17
7.00989e-13
-4.1766e-17
-4.21061e-17
7.009e-13
4.43792e-17
4.4513e-17
7.00989e-13
-4.37798e-17
-4.39702e-17
7.00905e-13
4.13117e-17
4.11154e-17
7.00984e-13
-3.67167e-17
-3.70366e-17
7.00905e-13
3.35311e-17
3.15892e-17
7.00984e-13
-3.23761e-17
-3.00767e-17
7.0091e-13
3.35073e-17
3.22279e-17
7.00984e-13
-3.3293e-17
-3.31973e-17
7.0091e-13
3.07485e-17
2.77817e-17
7.00976e-13
-2.74179e-17
-2.4442e-17
7.00921e-13
2.512e-17
2.57987e-17
7.00964e-13
-2.00424e-17
-2.10112e-17
7.00932e-13
1.5255e-17
1.52834e-17
7.00955e-13
-1.13061e-17
-1.19934e-17
7.00933e-13
1.18428e-17
1.21444e-17
7.00962e-13
-1.21144e-17
-1.29086e-17
8.60849e-18
8.55933e-18
1.67562e-12
4.51364e-12
6.14092e-12
1.39369e-12
1.80893e-13
2.24802e-13
1.55888e-12
-1.08104e-13
-1.33162e-13
1.45634e-12
6.74495e-14
8.3814e-14
1.52446e-12
-4.47724e-14
-5.56435e-14
1.47903e-12
2.97387e-14
3.70611e-14
1.50952e-12
-1.99376e-14
-2.47836e-14
1.48893e-12
1.35871e-14
1.65732e-14
1.50258e-12
-9.15516e-15
-1.08413e-14
1.49412e-12
6.08595e-15
6.66553e-15
1.49905e-12
-3.67956e-15
-3.83342e-15
1.49657e-12
2.13604e-15
1.9472e-15
1.49763e-12
-1.14803e-15
-8.35326e-16
1.4973e-12
4.41176e-16
2.59626e-16
1.49728e-12
-1.81575e-16
4.7208e-17
1.49739e-12
-1.39097e-17
-1.38346e-16
1.49722e-12
2.65305e-17
1.57717e-16
1.49737e-12
-7.16223e-17
-1.67039e-16
1.49721e-12
7.92833e-17
1.73034e-16
1.49737e-12
-7.41358e-17
-1.71677e-16
1.4972e-12
7.0669e-17
1.69484e-16
1.49737e-12
-6.70457e-17
-1.67867e-16
1.4972e-12
7.86549e-17
1.53536e-16
1.49737e-12
-6.28244e-17
-1.40926e-16
1.49719e-12
6.10934e-17
1.30876e-16
1.49736e-12
-6.51696e-17
-1.2697e-16
1.49721e-12
6.27278e-17
1.34932e-16
1.49735e-12
-6.05767e-17
-1.29781e-16
1.49722e-12
4.81622e-17
1.19515e-16
1.49732e-12
-4.09542e-17
-1.05629e-16
1.49723e-12
3.4679e-17
9.11147e-17
1.49732e-12
-3.16159e-17
-8.50138e-17
1.49723e-12
2.45698e-17
9.03384e-17
1.49732e-12
-3.07819e-17
-9.66666e-17
1.49723e-12
3.65972e-17
1.03282e-16
1.49732e-12
-4.0122e-17
-9.71833e-17
1.49723e-12
3.96543e-17
8.82574e-17
1.49732e-12
-2.87919e-17
-7.76038e-17
1.49723e-12
2.79618e-17
5.48544e-17
1.49732e-12
-2.80894e-17
-4.83099e-17
1.49724e-12
2.95115e-17
6.17013e-17
1.49732e-12
-3.28698e-17
-6.02249e-17
1.49724e-12
3.19343e-17
4.09172e-17
1.49731e-12
-2.95314e-17
-3.46475e-17
1.49725e-12
2.06295e-17
5.35e-17
1.49729e-12
-1.77361e-17
-4.39178e-17
1.49726e-12
1.06334e-17
3.46717e-17
1.49728e-12
-8.48103e-18
-2.64384e-17
1.49726e-12
1.3528e-17
2.54066e-17
1.4973e-12
-5.51296e-18
-3.06491e-17
1.40474e-17
1.96586e-17
2.1858e-12
4.16412e-12
6.66883e-12
1.92271e-12
1.81438e-13
2.62549e-13
2.07402e-12
-1.06941e-13
-1.52462e-13
1.98205e-12
6.48877e-14
9.45183e-14
2.04327e-12
-4.31632e-14
-6.28262e-14
2.00236e-12
2.86607e-14
4.18746e-14
2.02986e-12
-1.92713e-14
-2.80272e-14
2.01127e-12
1.32805e-14
1.88067e-14
2.02355e-12
-9.0894e-15
-1.23069e-14
2.01611e-12
6.19367e-15
7.58679e-15
2.02035e-12
-3.8042e-15
-4.31993e-15
2.01834e-12
2.27657e-15
2.18213e-15
2.0191e-12
-1.27792e-15
-9.37106e-16
2.01892e-12
5.05522e-16
2.6142e-16
2.01882e-12
-2.40291e-16
5.48907e-17
2.01896e-12
1.04076e-17
-1.62596e-16
2.01877e-12
-4.20487e-18
1.68869e-16
2.01893e-12
-5.0337e-17
-1.87343e-16
2.01876e-12
6.18745e-17
1.91333e-16
2.01892e-12
-5.33838e-17
-1.88837e-16
2.01875e-12
4.81489e-17
1.86078e-16
2.01892e-12
-4.0403e-17
-1.87288e-16
2.01875e-12
5.76127e-17
1.74442e-16
2.01892e-12
-3.62641e-17
-1.58868e-16
2.01875e-12
3.60811e-17
1.47304e-16
2.01891e-12
-4.45481e-17
-1.42366e-16
2.01876e-12
4.23562e-17
1.52361e-16
2.0189e-12
-4.55118e-17
-1.42227e-16
2.01877e-12
3.14142e-17
1.29988e-16
2.01888e-12
-2.35654e-17
-1.15887e-16
2.01878e-12
1.82026e-17
9.90504e-17
2.01887e-12
-1.52684e-17
-9.25386e-17
2.01878e-12
5.34119e-18
9.76072e-17
2.01887e-12
-1.42093e-17
-1.04903e-16
2.01878e-12
2.29049e-17
1.11225e-16
2.01887e-12
-2.68137e-17
-1.0784e-16
2.01878e-12
2.75424e-17
9.82981e-17
2.01887e-12
-1.29673e-17
-8.66433e-17
2.01878e-12
1.40493e-17
6.17286e-17
2.01887e-12
-1.41258e-17
-5.66049e-17
2.01879e-12
1.66157e-17
7.03196e-17
2.01887e-12
-2.21489e-17
-6.98715e-17
2.01879e-12
2.33712e-17
4.86278e-17
2.01886e-12
-2.1477e-17
-4.19632e-17
2.0188e-12
1.01767e-17
6.09688e-17
2.01884e-12
-9.52323e-18
-5.00276e-17
2.01881e-12
2.88372e-18
3.83714e-17
2.01883e-12
-2.78731e-18
-2.80579e-17
2.01881e-12
1.0341e-17
2.84486e-17
2.01885e-12
-3.41353e-19
-3.3215e-17
1.12969e-17
2.49453e-17
2.5324e-12
3.3578e-12
6.77902e-12
2.28733e-12
1.51782e-13
2.74739e-13
2.42883e-12
-8.9496e-14
-1.58948e-13
2.34342e-12
5.29667e-14
9.73191e-14
2.40033e-12
-3.53033e-14
-6.47671e-14
2.36226e-12
2.34101e-14
4.32141e-14
2.38786e-12
-1.5753e-14
-2.899e-14
2.37057e-12
1.09154e-14
1.95706e-14
2.38195e-12
-7.53754e-15
-1.28824e-14
2.37516e-12
5.22027e-15
8.0026e-15
2.37897e-12
-3.23357e-15
-4.57143e-15
2.37725e-12
1.97827e-15
2.32384e-15
2.37783e-12
-1.14293e-15
-1.01511e-15
2.37774e-12
4.58512e-16
2.81849e-16
2.37759e-12
-2.33403e-16
3.83016e-17
2.37774e-12
1.50518e-17
-1.5772e-16
2.37755e-12
-1.43292e-17
1.57607e-16
2.3777e-12
-3.5952e-17
-1.81062e-16
2.37754e-12
4.81796e-17
1.86026e-16
2.3777e-12
-3.85773e-17
-1.82333e-16
2.37752e-12
3.29301e-17
1.79961e-16
2.3777e-12
-2.09459e-17
-1.82271e-16
2.37753e-12
3.81185e-17
1.72007e-16
2.3777e-12
-1.47455e-17
-1.54975e-16
2.37753e-12
1.5163e-17
1.44184e-16
2.37769e-12
-2.60758e-17
-1.39922e-16
2.37754e-12
2.39218e-17
1.50485e-16
2.37767e-12
-3.3479e-17
-1.38443e-16
2.37754e-12
2.05014e-17
1.24907e-16
2.37765e-12
-1.31014e-17
-1.09961e-16
2.37756e-12
9.20233e-18
9.21723e-17
2.37764e-12
-7.06779e-18
-8.50913e-17
2.37755e-12
-3.29716e-18
8.95926e-17
2.37765e-12
-6.32841e-18
-9.84199e-17
2.37755e-12
1.58398e-17
1.0577e-16
2.37765e-12
-1.74864e-17
-1.0423e-16
2.37756e-12
1.86423e-17
9.50498e-17
2.37764e-12
-1.90192e-18
-8.33344e-17
2.37756e-12
3.94028e-18
5.84746e-17
2.37765e-12
-2.2303e-18
-5.53245e-17
2.37757e-12
5.22101e-18
6.94549e-17
2.37765e-12
-1.0378e-17
-7.04195e-17
2.37756e-12
1.35396e-17
4.92332e-17
2.37764e-12
-1.20624e-17
-4.2663e-17
2.37757e-12
5.66562e-19
6.11435e-17
2.37762e-12
-2.82516e-18
-4.89847e-17
2.37759e-12
-1.81478e-18
3.61619e-17
2.3776e-12
2.14558e-20
-2.50219e-17
2.37759e-12
7.53618e-18
2.69475e-17
2.37763e-12
2.78274e-18
-3.30123e-17
7.00966e-18
2.51411e-17
2.76558e-12
2.32779e-12
6.76954e-12
2.53542e-12
1.06745e-13
2.75212e-13
2.67002e-12
-6.34282e-14
-1.60665e-13
2.58862e-12
3.68302e-14
9.75141e-14
2.64286e-12
-2.45926e-14
-6.49408e-14
2.60656e-12
1.62925e-14
4.33126e-14
2.63097e-12
-1.09609e-14
-2.90712e-14
2.61451e-12
7.61608e-15
1.96664e-14
2.6253e-12
-5.28913e-15
-1.29817e-14
2.61893e-12
3.71018e-15
8.10471e-15
2.62248e-12
-2.31259e-15
-4.64252e-15
2.62092e-12
1.45076e-15
2.37238e-15
2.62141e-12
-8.66448e-16
-1.04596e-15
2.62135e-12
3.55921e-16
2.90124e-16
2.62118e-12
-1.91376e-16
3.16703e-17
2.62134e-12
1.5886e-17
-1.60349e-16
2.62114e-12
-1.70408e-17
1.55851e-16
2.62129e-12
-2.38593e-17
-1.79228e-16
2.62113e-12
3.10639e-17
1.88256e-16
2.62129e-12
-2.39972e-17
-1.82073e-16
2.62112e-12
1.92918e-17
1.79024e-16
2.62129e-12
-7.49344e-18
-1.78257e-16
2.62112e-12
1.80939e-17
1.71482e-16
2.62129e-12
2.19001e-18
-1.51572e-16
2.62112e-12
-2.58913e-18
1.41626e-16
2.62128e-12
-7.48643e-18
-1.39417e-16
2.62113e-12
7.96868e-18
1.48343e-16
2.62127e-12
-1.92662e-17
-1.39924e-16
2.62114e-12
1.06959e-17
1.24382e-16
2.62125e-12
-5.53909e-18
-1.08299e-16
2.62115e-12
9.60807e-19
9.22093e-17
2.62124e-12
-1.85593e-19
-8.47078e-17
2.62114e-12
-6.66009e-18
8.68876e-17
2.62124e-12
-1.58065e-18
-9.69262e-17
2.62114e-12
8.3621e-18
1.06935e-16
2.62124e-12
-8.81383e-18
-1.03951e-16
2.62115e-12
9.85816e-18
9.48801e-17
2.62124e-12
5.69613e-18
-8.14726e-17
2.62116e-12
-5.21203e-18
5.77393e-17
2.62124e-12
8.21464e-18
-5.41055e-17
2.62116e-12
-4.97565e-18
6.89615e-17
2.62124e-12
1.56754e-18
-7.04945e-17
2.62116e-12
2.84291e-18
4.89564e-17
2.62123e-12
-1.72754e-18
-4.24267e-17
2.62117e-12
-7.53567e-18
6.06639e-17
2.62121e-12
2.80448e-18
-4.84316e-17
2.62118e-12
-4.72501e-18
3.5318e-17
2.6212e-12
2.15276e-18
-2.47866e-17
2.62118e-12
3.99864e-18
2.72795e-17
2.62122e-12
6.99273e-18
-3.48984e-17
9.50986e-19
2.67051e-17
2.91039e-12
1.18733e-12
6.73517e-12
2.69075e-12
5.46663e-14
2.71729e-13
2.82089e-12
-3.27496e-14
-1.60811e-13
2.74179e-12
1.87941e-14
9.71148e-14
2.79447e-12
-1.25605e-14
-6.4709e-14
2.75921e-12
8.30829e-15
4.31456e-14
2.78291e-12
-5.58078e-15
-2.89596e-14
2.76697e-12
3.88154e-15
1.96018e-14
2.77739e-12
-2.71131e-15
-1.29419e-14
2.77128e-12
1.95095e-15
8.09414e-15
2.77466e-12
-1.2255e-15
-4.6373e-15
2.7732e-12
8.1438e-16
2.37322e-15
2.77363e-12
-5.2079e-16
-1.04795e-15
2.7736e-12
2.24305e-16
2.8756e-16
2.77341e-12
-1.32543e-16
2.84809e-17
2.77358e-12
1.31779e-17
-1.60746e-16
2.77337e-12
-1.55645e-17
1.54561e-16
2.77353e-12
-1.28706e-17
-1.78733e-16
2.77337e-12
1.33581e-17
1.87515e-16
2.77353e-12
-1.03595e-17
-1.80977e-16
2.77335e-12
7.25111e-18
1.7806e-16
2.77353e-12
2.96139e-18
-1.7663e-16
2.77336e-12
-1.16342e-18
1.70636e-16
2.77353e-12
1.62429e-17
-1.50077e-16
2.77336e-12
-1.79411e-17
1.40765e-16
2.77352e-12
1.00633e-17
-1.395e-16
2.77337e-12
-6.44319e-18
1.47262e-16
2.77351e-12
-5.3943e-18
-1.39276e-16
2.77338e-12
2.2333e-18
1.23444e-16
2.77348e-12
3.23436e-19
-1.07742e-16
2.77339e-12
-5.96915e-18
9.18698e-17
2.77348e-12
5.25121e-18
-8.43486e-17
2.77338e-12
-7.18247e-18
8.5922e-17
2.77348e-12
1.11281e-18
-9.6049e-17
2.77338e-12
1.7311e-18
1.06452e-16
2.77348e-12
-7.68805e-19
-1.03465e-16
2.77339e-12
1.60078e-18
9.45697e-17
2.77348e-12
1.11898e-17
-8.07276e-17
2.77339e-12
-1.31527e-17
5.76506e-17
2.77348e-12
1.74214e-17
-5.43678e-17
2.7734e-12
-1.41504e-17
6.90089e-17
2.77348e-12
1.27974e-17
-6.97287e-17
2.7734e-12
-7.88625e-18
4.89881e-17
2.77347e-12
8.82048e-18
-4.30833e-17
2.77341e-12
-1.44229e-17
6.01966e-17
2.77345e-12
7.62416e-18
-4.81171e-17
2.77342e-12
-6.70826e-18
3.50546e-17
2.77344e-12
3.90272e-18
-2.48151e-17
2.77342e-12
5.44555e-20
2.75585e-17
2.77346e-12
1.12441e-17
-3.55624e-17
-5.27004e-18
2.67914e-17
2.97993e-12
-2.30044e-18
6.7125e-12
2.76571e-12
5.30742e-18
2.68894e-13
2.89364e-12
-1.41725e-17
-1.60666e-13
2.81559e-12
1.15723e-17
9.68206e-14
2.86755e-12
9.63718e-18
-6.4535e-14
2.83277e-12
-3.60672e-17
4.30305e-14
2.85614e-12
4.53364e-17
-2.88813e-14
2.84044e-12
-3.69451e-17
1.95493e-14
2.85069e-12
2.59596e-18
-1.29015e-14
2.84469e-12
9.18939e-17
8.06669e-15
2.84801e-12
-7.31102e-17
-4.62113e-15
2.84658e-12
1.34369e-16
2.3635e-15
2.847e-12
-1.46549e-16
-1.0424e-15
2.84697e-12
8.07708e-17
2.8528e-16
2.84678e-12
-6.47921e-17
2.83882e-17
2.84694e-12
7.73781e-18
-1.59671e-16
2.84674e-12
-1.15514e-17
1.5394e-16
2.8469e-12
-2.59692e-18
-1.78409e-16
2.84674e-12
-3.04812e-18
1.85613e-16
2.8469e-12
1.92304e-18
-1.79783e-16
2.84672e-12
-3.67876e-18
1.77329e-16
2.8469e-12
1.20148e-17
-1.76525e-16
2.84673e-12
-1.92979e-17
1.69464e-16
2.8469e-12
2.85106e-17
-1.49563e-16
2.84673e-12
-3.1732e-17
1.40377e-16
2.84689e-12
2.65409e-17
-1.39103e-16
2.84674e-12
-1.96057e-17
1.46873e-16
2.84687e-12
7.214e-18
-1.37901e-16
2.84674e-12
-5.03364e-18
1.22627e-16
2.84685e-12
5.06624e-18
-1.07556e-16
2.84676e-12
-1.12936e-17
9.09409e-17
2.84684e-12
9.14348e-18
-8.34726e-17
2.84675e-12
-6.05141e-18
8.56189e-17
2.84685e-12
2.55747e-18
-9.54634e-17
2.84675e-12
-3.55218e-18
1.05382e-16
2.84685e-12
6.36402e-18
-1.02879e-16
2.84676e-12
-5.94084e-18
9.40136e-17
2.84685e-12
1.53153e-17
-8.06134e-17
2.84676e-12
-2.01854e-17
5.71997e-17
2.84685e-12
2.59469e-17
-5.4419e-17
2.84677e-12
-2.24007e-17
6.90932e-17
2.84685e-12
2.28033e-17
-6.89594e-17
2.84677e-12
-1.86123e-17
4.86518e-17
2.84683e-12
1.95668e-17
-4.3145e-17
2.84677e-12
-2.01386e-17
5.99788e-17
2.84682e-12
1.17288e-17
-4.78446e-17
2.84678e-12
-8.09186e-18
3.49832e-17
2.8468e-12
5.17958e-18
-2.46969e-17
2.84679e-12
-3.7033e-18
2.75092e-17
2.84683e-12
1.47458e-17
-3.54486e-17
-1.05909e-17
2.62744e-17
2.97993e-12
-1.18733e-12
6.7125e-12
2.76571e-12
-5.46552e-14
2.68893e-13
2.89364e-12
3.27215e-14
-1.60667e-13
2.81559e-12
-1.87712e-14
9.68216e-14
2.86755e-12
1.25785e-14
-6.45367e-14
2.83277e-12
-8.38126e-15
4.30341e-14
2.85614e-12
5.67032e-15
-2.88853e-14
2.84044e-12
-3.95274e-15
1.95497e-14
2.85069e-12
2.71573e-15
-1.28917e-14
2.84469e-12
-1.7649e-15
8.05717e-15
2.84801e-12
1.08156e-15
-4.6107e-15
2.84658e-12
-5.50008e-16
2.3549e-15
2.847e-12
2.32538e-16
-1.03503e-15
2.84697e-12
-6.75034e-17
2.80571e-16
2.84678e-12
4.84994e-18
2.88946e-17
2.84694e-12
1.82437e-18
-1.60714e-16
2.84674e-12
-8.16678e-18
1.55023e-16
2.8469e-12
7.77509e-18
-1.78776e-16
2.84674e-12
-1.92704e-17
1.84919e-16
2.8469e-12
1.43656e-17
-1.79881e-16
2.84672e-12
-1.50406e-17
1.7825e-16
2.8469e-12
2.08523e-17
-1.77165e-16
2.84673e-12
-3.64552e-17
1.69415e-16
2.8469e-12
3.96028e-17
-1.49818e-16
2.84673e-12
-4.41392e-17
1.40911e-16
2.84689e-12
4.17398e-17
-1.39818e-16
2.84674e-12
-3.17819e-17
1.46955e-16
2.84687e-12
1.9654e-17
-1.38099e-16
2.84674e-12
-1.24794e-17
1.23085e-16
2.84685e-12
9.73157e-18
-1.08049e-16
2.84676e-12
-1.60488e-17
9.0919e-17
2.84684e-12
1.25266e-17
-8.34166e-17
2.84675e-12
-4.76371e-18
8.58884e-17
2.84685e-12
4.18433e-18
-9.58819e-17
2.84675e-12
-8.9009e-18
1.05589e-16
2.84685e-12
1.32162e-17
-1.02791e-16
2.84676e-12
-1.32129e-17
9.41003e-17
2.84685e-12
1.87832e-17
-8.08658e-17
2.84676e-12
-2.6391e-17
5.74454e-17
2.84685e-12
3.32893e-17
-5.49021e-17
2.84677e-12
-2.9644e-17
6.94125e-17
2.84685e-12
3.16177e-17
-6.84681e-17
2.84677e-12
-2.87092e-17
4.87635e-17
2.84683e-12
2.95018e-17
-4.34923e-17
2.84677e-12
-2.48279e-17
5.98289e-17
2.84682e-12
1.52577e-17
-4.76791e-17
2.84678e-12
-9.21764e-18
3.49361e-17
2.8468e-12
6.28848e-18
-2.45402e-17
2.84679e-12
-7.17349e-18
2.72411e-17
2.84683e-12
1.75422e-17
-3.5567e-17
-1.50105e-17
2.58659e-17
2.91039e-12
-2.32778e-12
6.73517e-12
2.69075e-12
-1.06733e-13
2.71729e-13
2.82089e-12
6.3402e-14
-1.60815e-13
2.74179e-12
-3.6809e-14
9.71194e-14
2.79447e-12
2.46084e-14
-6.47144e-14
2.75922e-12
-1.63682e-14
4.31577e-14
2.78291e-12
1.10489e-14
-2.89706e-14
2.76697e-12
-7.68224e-15
1.96015e-14
2.77739e-12
5.2897e-15
-1.29156e-14
2.77128e-12
-3.52054e-15
8.06463e-15
2.77467e-12
2.17293e-15
-4.60948e-15
2.7732e-12
-1.19834e-15
2.34921e-15
2.77363e-12
5.91588e-16
-1.02792e-15
2.7736e-12
-2.10098e-16
2.7703e-16
2.77341e-12
7.09183e-17
3.10174e-17
2.77357e-12
-2.11009e-18
-1.62719e-16
2.77337e-12
-7.83433e-18
1.57746e-16
2.77353e-12
1.91047e-17
-1.79662e-16
2.77337e-12
-3.58832e-17
1.85383e-16
2.77353e-12
2.8049e-17
-1.81174e-16
2.77335e-12
-2.81434e-17
1.80405e-16
2.77353e-12
3.04774e-17
-1.78654e-16
2.77336e-12
-5.305e-17
1.70043e-16
2.77353e-12
5.02858e-17
-1.50718e-16
2.77336e-12
-5.57835e-17
1.41972e-16
2.77352e-12
5.61352e-17
-1.40947e-16
2.77337e-12
-4.32691e-17
1.47601e-16
2.77351e-12
3.28254e-17
-1.39487e-16
2.77338e-12
-2.12e-17
1.24626e-16
2.77348e-12
1.52763e-17
-1.09146e-16
2.77339e-12
-2.12522e-17
9.15681e-17
2.77347e-12
1.64791e-17
-8.39598e-17
2.77338e-12
-4.67868e-18
8.68091e-17
2.77348e-12
7.26706e-18
-9.71224e-17
2.77338e-12
-1.53825e-17
1.06819e-16
2.77348e-12
2.02644e-17
-1.03259e-16
2.77339e-12
-2.0708e-17
9.46438e-17
2.77348e-12
2.22507e-17
-8.1511e-17
2.77339e-12
-3.2362e-17
5.78793e-17
2.77348e-12
3.97577e-17
-5.52598e-17
2.7734e-12
-3.60524e-17
6.98086e-17
2.77348e-12
3.91586e-17
-6.82599e-17
2.7734e-12
-3.81069e-17
4.88393e-17
2.77347e-12
3.85384e-17
-4.35566e-17
2.77341e-12
-2.86184e-17
5.9885e-17
2.77345e-12
1.84647e-17
-4.76792e-17
2.77342e-12
-1.04275e-17
3.50198e-17
2.77344e-12
7.54822e-18
-2.4476e-17
2.77342e-12
-1.02954e-17
2.69122e-17
2.77346e-12
1.97221e-17
-3.58466e-17
-1.82419e-17
2.58115e-17
2.76558e-12
-3.3578e-12
6.76955e-12
2.53541e-12
-1.51769e-13
2.75213e-13
2.67002e-12
8.94744e-14
-1.60674e-13
2.58862e-12
-5.29521e-14
9.75251e-14
2.64286e-12
3.53174e-14
-6.49528e-14
2.60656e-12
-2.34897e-14
4.33331e-14
2.63096e-12
1.58357e-14
-2.90913e-14
2.61452e-12
-1.09711e-14
1.96695e-14
2.6253e-12
7.53496e-15
-1.29401e-14
2.61893e-12
-5.02627e-15
8.06109e-15
2.62248e-12
3.10507e-15
-4.5935e-15
2.62091e-12
-1.74828e-15
2.33069e-15
2.62141e-12
8.93155e-16
-1.01125e-15
2.62135e-12
-3.34221e-16
2.68998e-16
2.62118e-12
1.24028e-16
3.4942e-17
2.62134e-12
-4.93192e-18
-1.63197e-16
2.62114e-12
-1.13957e-17
1.59323e-16
2.62129e-12
3.21328e-17
-1.80722e-16
2.62113e-12
-5.16932e-17
1.84461e-16
2.62129e-12
4.25249e-17
-1.81562e-16
2.62111e-12
-4.23983e-17
1.81708e-16
2.62129e-12
4.28458e-17
-1.81332e-16
2.62112e-12
-6.82883e-17
1.71262e-16
2.62129e-12
6.14203e-17
-1.53232e-16
2.62112e-12
-6.6954e-17
1.44607e-16
2.62128e-12
6.89586e-17
-1.43115e-16
2.62113e-12
-5.48332e-17
1.49345e-16
2.62127e-12
4.5168e-17
-1.39895e-16
2.62114e-12
-3.06581e-17
1.25436e-16
2.62125e-12
2.24603e-17
-1.10573e-16
2.62115e-12
-2.66268e-17
9.21153e-17
2.62124e-12
2.10094e-17
-8.46405e-17
2.62114e-12
-7.56742e-18
8.84796e-17
2.62124e-12
1.2107e-17
-9.80426e-17
2.62114e-12
-2.20438e-17
1.0679e-16
2.62124e-12
2.76811e-17
-1.03669e-16
2.62115e-12
-2.81875e-17
9.51743e-17
2.62124e-12
2.65737e-17
-8.2788e-17
2.62116e-12
-3.7368e-17
5.92196e-17
2.62124e-12
4.48191e-17
-5.70469e-17
2.62116e-12
-4.15943e-17
7.10177e-17
2.62124e-12
4.4992e-17
-6.84241e-17
2.62116e-12
-4.52006e-17
4.95106e-17
2.62123e-12
4.52608e-17
-4.46488e-17
2.62117e-12
-3.19137e-17
6.03202e-17
2.62121e-12
2.1729e-17
-4.81028e-17
2.62118e-12
-1.23165e-17
3.54011e-17
2.6212e-12
9.29499e-18
-2.45011e-17
2.62118e-12
-1.30358e-17
2.65244e-17
2.62122e-12
2.07991e-17
-3.55698e-17
-1.95838e-17
2.51811e-17
2.5324e-12
-4.16413e-12
6.77903e-12
2.28732e-12
-1.81427e-13
2.74742e-13
2.42883e-12
1.06928e-13
-1.58961e-13
2.34341e-12
-6.4883e-14
9.73347e-14
2.40033e-12
4.31771e-14
-6.47848e-14
2.36226e-12
-2.87354e-14
4.32351e-14
2.38786e-12
1.93409e-14
-2.9013e-14
2.37058e-12
-1.33182e-14
1.95712e-14
2.38195e-12
9.07958e-15
-1.28272e-14
2.37516e-12
-6.0051e-15
7.9494e-15
2.37898e-12
3.69145e-15
-4.50612e-15
2.37724e-12
-2.0801e-15
2.26845e-15
2.37783e-12
1.06486e-15
-9.68892e-16
2.37774e-12
-4.06934e-16
2.51388e-16
2.37759e-12
1.46256e-16
4.4104e-17
2.37774e-12
-2.1405e-18
-1.63574e-16
2.37754e-12
-2.25249e-17
1.63095e-16
2.3777e-12
4.96834e-17
-1.84592e-16
2.37754e-12
-6.68393e-17
1.8412e-16
2.3777e-12
5.8751e-17
-1.83165e-16
2.37752e-12
-5.87218e-17
1.83998e-16
2.3777e-12
6.0958e-17
-1.86793e-16
2.37753e-12
-8.26772e-17
1.72948e-16
2.3777e-12
7.50876e-17
-1.57432e-16
2.37753e-12
-7.91063e-17
1.48593e-16
2.37769e-12
8.05918e-17
-1.45714e-16
2.37754e-12
-6.80094e-17
1.52543e-16
2.37767e-12
5.62021e-17
-1.39953e-16
2.37754e-12
-4.15342e-17
1.27015e-16
2.37765e-12
3.33391e-17
-1.13983e-16
2.37756e-12
-3.35214e-17
9.37536e-17
2.37764e-12
2.78718e-17
-8.6709e-17
2.37755e-12
-1.66218e-17
9.29396e-17
2.37765e-12
2.06437e-17
-1.00581e-16
2.37755e-12
-2.93091e-17
1.06875e-16
2.37765e-12
3.65118e-17
-1.0505e-16
2.37756e-12
-3.62965e-17
9.62806e-17
2.37764e-12
3.34351e-17
-8.54039e-17
2.37756e-12
-4.199e-17
6.06599e-17
2.37765e-12
4.91576e-17
-5.89358e-17
2.37757e-12
-4.68196e-17
7.21901e-17
2.37765e-12
4.90905e-17
-6.83249e-17
2.37756e-12
-4.9147e-17
4.91905e-17
2.37763e-12
4.89989e-17
-4.47193e-17
2.37757e-12
-3.52217e-17
6.08371e-17
2.37762e-12
2.55883e-17
-4.88068e-17
2.37758e-12
-1.56649e-17
3.63083e-17
2.3776e-12
1.19848e-17
-2.49838e-17
2.37759e-12
-1.54285e-17
2.64229e-17
2.37763e-12
2.05283e-17
-3.46741e-17
-1.72908e-17
2.45279e-17
2.1858e-12
-4.51365e-12
6.66883e-12
1.92271e-12
-1.80887e-13
2.62554e-13
2.07402e-12
1.08097e-13
-1.52473e-13
1.98204e-12
-6.74525e-14
9.45298e-14
2.04327e-12
4.47868e-14
-6.28489e-14
2.00236e-12
-2.9795e-14
4.18885e-14
2.02986e-12
1.99868e-14
-2.80574e-14
2.01128e-12
-1.35973e-14
1.88123e-14
2.02355e-12
9.13961e-15
-1.22362e-14
2.01611e-12
-5.92635e-15
7.54568e-15
2.02035e-12
3.59906e-15
-4.24572e-15
2.01834e-12
-1.99326e-15
2.12367e-15
2.0191e-12
9.91054e-16
-8.86577e-16
2.01892e-12
-3.77861e-16
2.19161e-16
2.01882e-12
1.08537e-16
5.33123e-17
2.01896e-12
2.14464e-17
-1.7123e-16
2.01877e-12
-5.3008e-17
1.74681e-16
2.01892e-12
7.21563e-17
-1.89442e-16
2.01876e-12
-8.55804e-17
1.88158e-16
2.01892e-12
8.09387e-17
-1.89313e-16
2.01875e-12
-8.20732e-17
1.91642e-16
2.01892e-12
8.33159e-17
-1.90137e-16
2.01875e-12
-9.65479e-17
1.74856e-16
2.01892e-12
9.05088e-17
-1.59572e-16
2.01875e-12
-9.12094e-17
1.51142e-16
2.01891e-12
9.00205e-17
-1.47727e-16
2.01876e-12
-8.024e-17
1.52312e-16
2.0189e-12
7.06848e-17
-1.44778e-16
2.01877e-12
-5.836e-17
1.33019e-16
2.01887e-12
4.91623e-17
-1.18782e-16
2.01878e-12
-4.65197e-17
9.98976e-17
2.01887e-12
4.11871e-17
-9.27849e-17
2.01878e-12
-3.40922e-17
9.93065e-17
2.01887e-12
3.77128e-17
-1.07773e-16
2.01878e-12
-4.38434e-17
1.13092e-16
2.01887e-12
4.79018e-17
-1.07168e-16
2.01878e-12
-4.66319e-17
9.9103e-17
2.01887e-12
4.35037e-17
-8.79942e-17
2.01878e-12
-4.81118e-17
6.31733e-17
2.01887e-12
5.19065e-17
-5.89901e-17
2.01879e-12
-5.03115e-17
7.07301e-17
2.01887e-12
5.15249e-17
-6.67978e-17
2.01879e-12
-5.05686e-17
4.86489e-17
2.01886e-12
4.84739e-17
-4.27562e-17
2.0188e-12
-3.77861e-17
5.9409e-17
2.01884e-12
2.91774e-17
-4.8351e-17
2.01881e-12
-2.02839e-17
3.67583e-17
2.01883e-12
1.59857e-17
-2.61373e-17
2.01881e-12
-1.7104e-17
2.63691e-17
2.01885e-12
2.03657e-17
-3.42955e-17
-1.49642e-17
2.55631e-17
1.67562e-12
-3.82509e-12
6.14093e-12
1.39369e-12
-1.23754e-13
2.24804e-13
1.55888e-12
7.60749e-14
-1.33167e-13
1.45633e-12
-4.87341e-14
8.38196e-14
1.52446e-12
3.23096e-14
-5.56605e-14
1.47903e-12
-2.15118e-14
3.70689e-14
1.50951e-12
1.43956e-14
-2.48119e-14
1.48894e-12
-9.66082e-15
1.65953e-14
1.50258e-12
6.37391e-15
-1.07876e-14
1.49412e-12
-3.96363e-15
6.66559e-15
1.49905e-12
2.35776e-15
-3.77372e-15
1.49656e-12
-1.22739e-15
1.90624e-15
1.49763e-12
5.42645e-16
-8.03522e-16
1.49729e-12
-1.96289e-16
2.17615e-16
1.49728e-12
5.86641e-18
3.75801e-17
1.49739e-12
4.63258e-17
-1.43907e-16
1.49722e-12
-7.93009e-17
1.5453e-16
1.49737e-12
7.49208e-17
-1.67035e-16
1.49721e-12
-8.07864e-17
1.64482e-16
1.49737e-12
8.14156e-17
-1.67523e-16
1.4972e-12
-8.49724e-17
1.68848e-16
1.49737e-12
8.55361e-17
-1.67753e-16
1.4972e-12
-8.32874e-17
1.51151e-16
1.49737e-12
8.31006e-17
-1.39875e-16
1.49719e-12
-8.07769e-17
1.32243e-16
1.49736e-12
7.58608e-17
-1.28779e-16
1.49721e-12
-7.22844e-17
1.33956e-16
1.49735e-12
6.62978e-17
-1.27601e-16
1.49722e-12
-6.15196e-17
1.18469e-16
1.49732e-12
5.23242e-17
-1.05946e-16
1.49723e-12
-4.6514e-17
8.8393e-17
1.49731e-12
4.22253e-17
-8.20332e-17
1.49723e-12
-4.35164e-17
8.90965e-17
1.49732e-12
4.62355e-17
-9.61454e-17
1.49723e-12
-4.75742e-17
1.00125e-16
1.49732e-12
4.70085e-17
-9.40614e-17
1.49723e-12
-4.39778e-17
8.65596e-17
1.49732e-12
4.32106e-17
-7.79462e-17
1.49723e-12
-4.09398e-17
5.46032e-17
1.49732e-12
4.11796e-17
-5.03136e-17
1.49724e-12
-4.09797e-17
6.07895e-17
1.49732e-12
4.11439e-17
-5.77263e-17
1.49724e-12
-3.8889e-17
4.1087e-17
1.49731e-12
3.44925e-17
-3.52439e-17
1.49725e-12
-3.20883e-17
5.11843e-17
1.49729e-12
2.48899e-17
-4.07792e-17
1.49726e-12
-1.95534e-17
3.10982e-17
1.49728e-12
1.48395e-17
-2.22249e-17
1.49726e-12
-1.32992e-17
2.2685e-17
1.4973e-12
1.82368e-17
-2.86092e-17
-3.33848e-18
2.30873e-17
8.54927e-13
3.82509e-12
6.07415e-13
1.23759e-13
7.59579e-13
-7.6088e-14
6.62109e-13
4.87318e-14
7.26717e-13
-3.23e-14
6.83705e-13
2.14861e-14
7.12501e-13
-1.4385e-14
6.93151e-13
9.68038e-15
7.05934e-13
-6.39175e-15
6.97935e-13
4.06845e-15
7.02636e-13
-2.3606e-15
7.0018e-13
1.26442e-15
7.01292e-13
-6.05399e-16
7.00906e-13
2.03049e-16
7.00943e-13
-4.75774e-17
7.0103e-13
-4.2229e-17
7.00887e-13
5.60667e-17
7.0103e-13
-7.05431e-17
7.00879e-13
7.22822e-17
7.01031e-13
-7.18641e-17
7.0087e-13
7.39423e-17
7.0103e-13
-7.31226e-17
7.0087e-13
7.51386e-17
7.01026e-13
-6.84299e-17
7.0087e-13
6.90102e-17
7.01019e-13
-6.84177e-17
7.0088e-13
6.4145e-17
7.01008e-13
-6.01155e-17
7.00892e-13
5.2769e-17
7.00991e-13
-4.68869e-17
7.00903e-13
4.12025e-17
7.00984e-13
-3.82303e-17
7.00902e-13
3.67726e-17
7.00989e-13
-3.94178e-17
7.009e-13
4.15465e-17
7.00988e-13
-4.12061e-17
7.00905e-13
3.95729e-17
7.00984e-13
-3.45309e-17
7.00905e-13
3.25363e-17
7.00984e-13
-3.18778e-17
7.0091e-13
3.06758e-17
7.00984e-13
-2.97459e-17
7.0091e-13
2.83408e-17
7.00976e-13
-2.61487e-17
7.00921e-13
2.18211e-17
7.00963e-13
-1.72418e-17
7.00932e-13
1.16573e-17
7.00955e-13
-8.04935e-18
7.00932e-13
9.78955e-18
7.00962e-13
-1.00449e-17
1.26851e-17
1.67562e-12
6.14092e-12
4.51365e-12
1.39369e-12
2.24803e-13
1.80891e-13
1.55888e-12
-1.33167e-13
-1.08098e-13
1.45634e-12
8.38145e-14
6.74477e-14
1.52446e-12
-5.5642e-14
-4.4778e-14
1.47903e-12
3.70612e-14
2.97356e-14
1.50952e-12
-2.47864e-14
-1.99371e-14
1.48893e-12
1.65836e-14
1.35782e-14
1.50258e-12
-1.0842e-14
-9.14468e-15
1.49412e-12
6.67431e-15
6.08423e-15
1.49905e-12
-3.8218e-15
-3.68816e-15
1.49657e-12
1.9436e-15
2.1364e-15
1.49763e-12
-8.35262e-16
-1.14554e-15
1.4973e-12
2.49839e-16
4.4293e-16
1.49728e-12
4.04859e-17
-1.77154e-16
1.49739e-12
-1.41605e-16
-1.17869e-17
1.49722e-12
1.57023e-16
2.67409e-17
1.49737e-12
-1.67021e-16
-7.21341e-17
1.49721e-12
1.71664e-16
8.07745e-17
1.49737e-12
-1.70788e-16
-7.52407e-17
1.4972e-12
1.7044e-16
6.9757e-17
1.49737e-12
-1.66062e-16
-6.90478e-17
1.4972e-12
1.55583e-16
7.7184e-17
1.49737e-12
-1.42559e-16
-6.09975e-17
1.49719e-12
1.32491e-16
5.99519e-17
1.49736e-12
-1.31116e-16
-6.13067e-17
1.49721e-12
1.34027e-16
6.38468e-17
1.49735e-12
-1.30498e-16
-6.01011e-17
1.49722e-12
1.19611e-16
4.82424e-17
1.49732e-12
-1.05282e-16
-4.13989e-17
1.49723e-12
9.22197e-17
3.36689e-17
1.49732e-12
-8.72317e-17
-2.90109e-17
1.49723e-12
8.93012e-17
2.56562e-17
1.49732e-12
-9.67238e-17
-3.12493e-17
1.49723e-12
1.03295e-16
3.67556e-17
1.49732e-12
-9.67252e-17
-4.05756e-17
1.49723e-12
8.89235e-17
3.91912e-17
1.49732e-12
-7.67852e-17
-2.98248e-17
1.49723e-12
6.01092e-17
2.23583e-17
1.49732e-12
-5.52345e-17
-2.12443e-17
1.49724e-12
6.42021e-17
2.65459e-17
1.49732e-12
-6.01241e-17
-3.2707e-17
1.49724e-12
4.76983e-17
2.38989e-17
1.49731e-12
-4.32185e-17
-2.06416e-17
1.49725e-12
5.2112e-17
2.25404e-17
1.49729e-12
-4.34202e-17
-1.93769e-17
1.49726e-12
3.48775e-17
1.04528e-17
1.49728e-12
-2.60549e-17
-9.48503e-18
1.49726e-12
2.50682e-17
1.4037e-17
1.4973e-12
-2.97188e-17
-7.40058e-18
1.83185e-17
1.54329e-17
3.75413e-12
8.5164e-12
8.51641e-12
3.44911e-12
3.77331e-13
3.77328e-13
3.61073e-12
-2.13982e-13
-2.13964e-13
3.51844e-12
1.29947e-13
1.29938e-13
3.57991e-12
-8.63659e-14
-8.63705e-14
3.53925e-12
5.72354e-14
5.72328e-14
3.5666e-12
-3.82813e-14
-3.82679e-14
3.54759e-12
2.59768e-14
2.5949e-14
3.56112e-12
-1.75545e-14
-1.75239e-14
3.55155e-12
1.18064e-14
1.17803e-14
3.55808e-12
-7.32939e-15
-7.36709e-15
3.55393e-12
4.42137e-15
4.45264e-15
3.55638e-12
-2.46638e-15
-2.4762e-15
3.55514e-12
1.04629e-15
1.08354e-15
3.55583e-12
-4.6034e-16
-4.49091e-16
3.5555e-12
2.25959e-17
3.01025e-17
3.55561e-12
3.84271e-17
4.0738e-17
3.55552e-12
-1.43094e-16
-1.44738e-16
3.55557e-12
1.59972e-16
1.65678e-16
3.55551e-12
-1.46439e-16
-1.52461e-16
3.55555e-12
1.34796e-16
1.33258e-16
3.5555e-12
-1.17878e-16
-1.25301e-16
3.55551e-12
1.30589e-16
1.20759e-16
3.5555e-12
-9.24096e-17
-8.16422e-17
3.55547e-12
8.95974e-17
7.94124e-17
3.5555e-12
-1.05068e-16
-8.67512e-17
3.55551e-12
1.02735e-16
1.03611e-16
3.5555e-12
-1.11864e-16
-1.08584e-16
3.55552e-12
9.01857e-17
8.95978e-17
3.55548e-12
-7.70921e-17
-7.82958e-17
3.55552e-12
6.39398e-17
5.76786e-17
3.55547e-12
-5.93443e-17
-4.81844e-17
3.55553e-12
4.76112e-17
5.0452e-17
3.55547e-12
-6.06018e-17
-6.05961e-17
3.55553e-12
7.50042e-17
7.54334e-17
3.55549e-12
-7.4995e-17
-7.62093e-17
3.55552e-12
7.29057e-17
7.00379e-17
3.5555e-12
-4.31089e-17
-4.55764e-17
3.55547e-12
3.35139e-17
6.97967e-18
3.5555e-12
-2.71323e-17
6.91996e-18
3.55551e-12
3.57531e-17
2.38249e-17
3.55552e-12
-3.92589e-17
-3.72202e-17
3.55547e-12
3.44563e-17
2.4509e-18
3.55551e-12
-3.32072e-17
7.98407e-18
3.55553e-12
2.63344e-17
3.07587e-17
3.5555e-12
-2.70938e-17
-2.82624e-17
3.55553e-12
1.86474e-17
1.79208e-17
3.55551e-12
-1.96327e-17
-2.12624e-17
3.55552e-12
2.73086e-17
2.90337e-17
3.55551e-12
-5.04052e-18
-8.25168e-18
2.52446e-17
3.52099e-17
5.17171e-12
8.56203e-12
9.95659e-12
4.9239e-12
4.14628e-13
4.73091e-13
5.04596e-12
-2.28201e-13
-2.60298e-13
4.9824e-12
1.33741e-13
1.54249e-13
5.02511e-12
-8.91449e-14
-1.02739e-13
4.99675e-12
5.90329e-14
6.81335e-14
5.01595e-12
-3.95209e-14