/*--------------------------------*- C++ -*----------------------------------*\
  =========                 |
  \\      /  F ield         | OpenFOAM: The Open Source CFD Toolbox
   \\    /   O peration     | Website:  https://openfoam.org
    \\  /    A nd           | Version:  13
     \\/     M anipulation  |
\*---------------------------------------------------------------------------*/
FoamFile
{
    format      ascii;
    class       volVectorField;
    location    "28";
    object      U;
}
// * * * * * * * * * * * * * * * * * * * * * * * * * * * * * * * * * * * * * //

dimensions      [0 1 -1 0 0 0 0];

internalField   nonuniform List<vector> 
9996
(
(0.0126129 0.000778293 0.000778293)
(0.0152864 2.53059e-05 2.53058e-05)
(0.0125642 -1.66157e-05 -1.66153e-05)
(0.0145073 1.08951e-05 1.08951e-05)
(0.0132326 -7.21e-06 -7.21042e-06)
(0.0140721 4.78277e-06 4.78225e-06)
(0.0135162 -3.18823e-06 -3.18782e-06)
(0.013888 2.12585e-06 2.12491e-06)
(0.0136336 -1.39649e-06 -1.39596e-06)
(0.0138106 8.92326e-07 8.92962e-07)
(0.0136912 -5.29599e-07 -5.30747e-07)
(0.0137688 2.94375e-07 2.94715e-07)
(0.0137226 -1.45633e-07 -1.46092e-07)
(0.0137475 5.5544e-08 5.57329e-08)
(0.0137355 -1.41151e-08 -1.39949e-08)
(0.0137402 -8.74224e-09 -8.63023e-09)
(0.0137386 1.33966e-08 1.34698e-08)
(0.0137388 -1.67471e-08 -1.67631e-08)
(0.0137388 1.79877e-08 1.81091e-08)
(0.0137387 -1.77784e-08 -1.7885e-08)
(0.0137387 1.76207e-08 1.75605e-08)
(0.0137385 -1.6946e-08 -1.70177e-08)
(0.0137387 1.75097e-08 1.74839e-08)
(0.0137385 -1.6008e-08 -1.58959e-08)
(0.0137387 1.53586e-08 1.52884e-08)
(0.0137384 -1.52524e-08 -1.50231e-08)
(0.0137387 1.43319e-08 1.43567e-08)
(0.0137384 -1.43573e-08 -1.43585e-08)
(0.0137387 1.25581e-08 1.26011e-08)
(0.0137383 -1.12262e-08 -1.12348e-08)
(0.0137387 1.04883e-08 1.04548e-08)
(0.0137384 -9.95486e-09 -9.81276e-09)
(0.0137385 9.23841e-09 9.27612e-09)
(0.0137385 -9.69334e-09 -9.77079e-09)
(0.0137386 1.04239e-08 1.04685e-08)
(0.0137384 -9.9416e-09 -9.98675e-09)
(0.0137387 9.57632e-09 9.55991e-09)
(0.0137384 -8.35344e-09 -8.38512e-09)
(0.0137386 7.95709e-09 7.68488e-09)
(0.0137384 -7.29057e-09 -6.99322e-09)
(0.0137387 7.5557e-09 7.37437e-09)
(0.0137385 -7.53766e-09 -7.49465e-09)
(0.0137387 6.72029e-09 6.24647e-09)
(0.0137384 -5.98904e-09 -5.60708e-09)
(0.0137387 5.42526e-09 5.54476e-09)
(0.0137384 -4.67527e-09 -4.93279e-09)
(0.0137387 3.64337e-09 3.70916e-09)
(0.0137384 -3.08326e-09 -3.3038e-09)
(0.0137385 3.00403e-09 3.11437e-09)
(0.0137385 -2.3209e-09 -2.49879e-09)
(0.0137388 2.73439e-09 2.70669e-09)
(0.0264299 0.00159027 0.00126203)
(0.0325341 5.74351e-05 4.68659e-05)
(0.0269405 -3.45168e-05 -3.01346e-05)
(0.0309229 2.17979e-05 1.96243e-05)
(0.0283073 -1.44573e-05 -1.29693e-05)
(0.0300332 9.60776e-06 8.51147e-06)
(0.0288882 -6.43086e-06 -5.60307e-06)
(0.0296544 4.34695e-06 3.62865e-06)
(0.0291325 -2.89684e-06 -2.30651e-06)
(0.029492 1.8739e-06 1.4626e-06)
(0.0292526 -1.11643e-06 -8.34475e-07)
(0.0294063 6.22483e-07 4.6217e-07)
(0.0293159 -3.14679e-07 -2.22701e-07)
(0.0293639 1.16419e-07 7.05959e-08)
(0.029341 -3.46753e-08 -8.56221e-09)
(0.0293498 -1.38793e-08 -4.18531e-08)
(0.0293468 2.02323e-08 4.31381e-08)
(0.0293469 -2.93779e-08 -4.65892e-08)
(0.0293471 3.16043e-08 5.36239e-08)
(0.0293468 -3.05215e-08 -5.01978e-08)
(0.029347 3.0187e-08 4.76898e-08)
(0.0293465 -2.91727e-08 -3.98285e-08)
(0.0293471 3.09698e-08 4.50943e-08)
(0.0293465 -2.71081e-08 -3.69764e-08)
(0.029347 2.62583e-08 3.57166e-08)
(0.0293464 -2.66088e-08 -3.78461e-08)
(0.029347 2.5619e-08 3.23571e-08)
(0.0293464 -2.46255e-08 -4.09e-08)
(0.029347 2.11304e-08 3.46463e-08)
(0.0293463 -1.83433e-08 -3.14512e-08)
(0.0293469 1.61343e-08 3.44596e-08)
(0.0293464 -1.49927e-08 -3.35847e-08)
(0.0293466 1.36193e-08 2.83269e-08)
(0.0293465 -1.52539e-08 -2.96701e-08)
(0.0293468 1.68253e-08 3.39525e-08)
(0.0293462 -1.70753e-08 -2.80428e-08)
(0.029347 1.63693e-08 2.71711e-08)
(0.0293462 -1.34432e-08 -2.09366e-08)
(0.0293469 1.25663e-08 2.19547e-08)
(0.0293463 -1.21933e-08 -1.68969e-08)
(0.0293469 1.26486e-08 1.74026e-08)
(0.0293464 -1.30288e-08 -1.67821e-08)
(0.0293469 1.22555e-08 1.37864e-08)
(0.0293464 -1.11259e-08 -1.24808e-08)
(0.0293469 9.24705e-09 1.15462e-08)
(0.0293463 -7.66235e-09 -1.2374e-08)
(0.0293469 5.47271e-09 1.03239e-08)
(0.0293464 -4.21125e-09 -1.11389e-08)
(0.0293466 5.0669e-09 9.68089e-09)
(0.0293465 -3.98757e-09 -8.33153e-09)
(0.0293472 4.38984e-09 1.0894e-08)
(0.0351905 0.00163307 0.00128469)
(0.0437813 6.83795e-05 5.16982e-05)
(0.0364267 -4.04259e-05 -3.30926e-05)
(0.0416296 2.48724e-05 2.14687e-05)
(0.0382086 -1.65284e-05 -1.41955e-05)
(0.0404691 1.09832e-05 9.31091e-06)
(0.0389668 -7.37783e-06 -6.11815e-06)
(0.0399731 5.06026e-06 3.95121e-06)
(0.0392896 -3.43729e-06 -2.50152e-06)
(0.0397571 2.31049e-06 1.5927e-06)
(0.0394492 -1.40673e-06 -9.07554e-07)
(0.0396447 8.26764e-07 5.08768e-07)
(0.0395311 -4.5326e-07 -2.51146e-07)
(0.0395903 1.76192e-07 8.0805e-08)
(0.0395623 -7.83277e-08 -1.51122e-08)
(0.0395727 6.21587e-11 -4.16961e-08)
(0.0395693 3.54719e-09 4.35695e-08)
(0.0395692 -2.23478e-08 -5.04135e-08)
(0.0395696 2.54686e-08 5.51848e-08)
(0.0395691 -2.31551e-08 -5.25477e-08)
(0.0395695 2.16845e-08 4.97245e-08)
(0.0395688 -2.01629e-08 -4.2919e-08)
(0.0395697 2.53059e-08 4.77824e-08)
(0.0395688 -1.87565e-08 -3.99547e-08)
(0.0395696 1.84101e-08 3.85108e-08)
(0.0395687 -2.04946e-08 -4.02473e-08)
(0.0395695 1.98579e-08 3.49655e-08)
(0.0395688 -1.92265e-08 -4.17807e-08)
(0.0395694 1.44643e-08 3.59394e-08)
(0.0395686 -1.17428e-08 -3.37107e-08)
(0.0395693 9.27519e-09 3.60953e-08)
(0.0395688 -8.13835e-09 -3.54303e-08)
(0.039569 5.241e-09 3.04505e-08)
(0.0395687 -7.98295e-09 -3.12213e-08)
(0.0395694 1.04134e-08 3.43596e-08)
(0.0395684 -1.22187e-08 -2.9492e-08)
(0.0395696 1.22569e-08 2.86477e-08)
(0.0395684 -7.83994e-09 -2.25729e-08)
(0.0395695 7.77989e-09 2.3541e-08)
(0.0395686 -8.1434e-09 -1.87581e-08)
(0.0395695 8.74803e-09 1.85114e-08)
(0.0395687 -1.0433e-08 -1.74106e-08)
(0.0395694 1.05736e-08 1.50169e-08)
(0.0395687 -9.79404e-09 -1.40028e-08)
(0.0395693 5.94749e-09 1.19069e-08)
(0.0395686 -5.08436e-09 -1.30631e-08)
(0.0395693 2.44839e-09 1.09447e-08)
(0.0395687 -1.85388e-09 -1.19122e-08)
(0.039569 4.29942e-09 1.07089e-08)
(0.0395689 -9.54169e-10 -7.39717e-09)
(0.0395697 4.64456e-09 1.19284e-08)
(0.0410636 0.00137893 0.00125633)
(0.0515 6.1833e-05 5.20693e-05)
(0.0429982 -3.63031e-05 -3.34717e-05)
(0.0489667 2.17185e-05 2.16492e-05)
(0.0450375 -1.44625e-05 -1.43301e-05)
(0.0476369 9.59895e-06 9.41563e-06)
(0.0459071 -6.46039e-06 -6.1974e-06)
(0.0470664 4.47095e-06 4.01353e-06)
(0.0462809 -3.07853e-06 -2.54608e-06)
(0.0468148 2.1178e-06 1.62256e-06)
(0.0464664 -1.30761e-06 -9.25824e-07)
(0.0466855 7.91149e-07 5.19624e-07)
(0.0465594 -4.50789e-07 -2.58212e-07)
(0.0466243 1.79425e-07 8.46924e-08)
(0.0465938 -8.86945e-08 -1.87752e-08)
(0.0466049 5.44145e-09 -3.78874e-08)
(0.0466013 -4.49652e-09 4.04058e-08)
(0.0466011 -1.49716e-08 -4.83996e-08)
(0.0466017 1.9673e-08 5.15426e-08)
(0.046601 -1.61725e-08 -4.98889e-08)
(0.0466016 1.41104e-08 4.75269e-08)
(0.0466006 -1.0447e-08 -4.20103e-08)
(0.0466018 1.71477e-08 4.5939e-08)
(0.0466007 -8.80117e-09 -3.90777e-08)
(0.0466017 8.93706e-09 3.75992e-08)
(0.0466007 -1.25941e-08 -3.86891e-08)
(0.0466015 1.17516e-08 3.42071e-08)
(0.0466008 -1.41027e-08 -3.93658e-08)
(0.0466014 8.98991e-09 3.42204e-08)
(0.0466006 -6.08915e-09 -3.22058e-08)
(0.0466013 4.48464e-09 3.36432e-08)
(0.0466008 -3.49972e-09 -3.29964e-08)
(0.0466011 -3.91427e-10 2.88678e-08)
(0.0466006 -3.11576e-09 -2.9647e-08)
(0.0466015 6.62601e-09 3.1917e-08)
(0.0466003 -7.72592e-09 -2.78869e-08)
(0.0466017 8.10529e-09 2.71593e-08)
(0.0466003 -2.34385e-09 -2.18999e-08)
(0.0466017 3.022e-09 2.24009e-08)
(0.0466004 -2.83468e-09 -1.82439e-08)
(0.0466016 3.8638e-09 1.78038e-08)
(0.0466006 -5.99188e-09 -1.68485e-08)
(0.0466015 6.77142e-09 1.46497e-08)
(0.0466007 -6.15881e-09 -1.35712e-08)
(0.0466013 1.92572e-09 1.15259e-08)
(0.0466006 -2.14618e-09 -1.24482e-08)
(0.0466013 -5.43384e-12 1.0288e-08)
(0.0466006 -3.22701e-10 -1.09486e-08)
(0.046601 3.21474e-09 9.9503e-09)
(0.0466009 4.00641e-10 -6.0993e-09)
(0.0466017 3.41443e-09 1.12595e-08)
(0.0449729 0.00103103 0.00123207)
(0.0567345 4.73827e-05 5.14081e-05)
(0.0474871 -2.79285e-05 -3.34189e-05)
(0.0539321 1.63173e-05 2.15714e-05)
(0.0496842 -1.08877e-05 -1.42822e-05)
(0.0524972 7.2152e-06 9.38573e-06)
(0.0506235 -4.85585e-06 -6.18318e-06)
(0.0518797 3.37234e-06 4.00994e-06)
(0.0510303 -2.33799e-06 -2.54862e-06)
(0.0516047 1.63145e-06 1.62799e-06)
(0.0512325 -1.01443e-06 -9.29523e-07)
(0.0514648 6.27915e-07 5.22048e-07)
(0.0513321 -3.6842e-07 -2.59825e-07)
(0.0513997 1.49168e-07 8.52195e-08)
(0.0513681 -7.80512e-08 -1.96396e-08)
(0.0513794 5.65088e-09 -3.78795e-08)
(0.0513758 -6.0529e-09 4.00318e-08)
(0.0513754 -1.05131e-08 -4.74539e-08)
(0.0513763 1.44437e-08 5.10252e-08)
(0.0513753 -1.11947e-08 -4.93566e-08)
(0.0513761 9.22566e-09 4.72162e-08)
(0.0513749 -4.65245e-09 -4.11186e-08)
(0.0513764 1.00922e-08 4.52151e-08)
(0.0513751 -1.92862e-09 -3.81853e-08)
(0.0513763 2.01848e-09 3.68719e-08)
(0.0513751 -5.998e-09 -3.79765e-08)
(0.051376 5.53358e-09 3.34886e-08)
(0.0513752 -9.61278e-09 -3.93554e-08)
(0.0513759 5.51578e-09 3.41539e-08)
(0.051375 -3.13549e-09 -3.16093e-08)
(0.0513758 1.7906e-09 3.31021e-08)
(0.0513752 -1.22112e-09 -3.23162e-08)
(0.0513756 -2.146e-09 2.81101e-08)
(0.051375 -1.20211e-09 -2.93756e-08)
(0.0513761 4.3889e-09 3.18862e-08)
(0.0513746 -4.67293e-09 -2.73381e-08)
(0.0513763 5.09465e-09 2.66893e-08)
(0.0513746 9.06759e-10 -2.14267e-08)
(0.0513763 -2.78205e-10 2.1914e-08)
(0.0513748 1.16424e-09 -1.75891e-08)
(0.0513762 -7.88446e-12 1.71131e-08)
(0.051375 -1.6285e-09 -1.66421e-08)
(0.051376 3.00499e-09 1.43642e-08)
(0.0513751 -2.53535e-09 -1.28997e-08)
(0.0513758 -1.32742e-09 1.11214e-08)
(0.051375 5.71823e-11 -1.18469e-08)
(0.0513758 -1.28852e-09 9.66305e-09)
(0.051375 4.18195e-10 -1.02555e-08)
(0.0513754 2.12882e-09 9.36612e-09)
(0.0513753 1.6278e-09 -5.8456e-09)
(0.0513762 1.5518e-09 1.13994e-08)
(0.0473815 0.000635465 0.00121489)
(0.0600041 2.94125e-05 5.06234e-05)
(0.0503057 -1.7487e-05 -3.33164e-05)
(0.0570276 1.00529e-05 2.14856e-05)
(0.052593 -6.71863e-06 -1.42243e-05)
(0.0555316 4.44784e-06 9.34367e-06)
(0.0535731 -2.99066e-06 -6.15655e-06)
(0.0548863 2.07993e-06 3.99408e-06)
(0.0539998 -1.4484e-06 -2.54029e-06)
(0.0545972 1.02592e-06 1.62578e-06)
(0.0542118 -6.41596e-07 -9.28434e-07)
(0.0544511 4.10884e-07 5.21483e-07)
(0.0543151 -2.51764e-07 -2.59575e-07)
(0.054384 1.05196e-07 8.48279e-08)
(0.0543519 -5.87679e-08 -1.99115e-08)
(0.0543633 5.26936e-09 -3.79522e-08)
(0.0543597 -6.01699e-09 4.00746e-08)
(0.0543591 -6.54412e-09 -4.70746e-08)
(0.0543602 7.99838e-09 5.0666e-08)
(0.0543591 -6.13091e-09 -4.90874e-08)
(0.05436 4.68815e-09 4.71377e-08)
(0.0543587 -6.71239e-10 -4.06264e-08)
(0.0543603 3.02896e-09 4.4653e-08)
(0.0543589 3.41141e-09 -3.76206e-08)
(0.0543602 -3.7707e-09 3.64501e-08)
(0.054359 4.8375e-10 -3.74804e-08)
(0.0543599 2.16569e-10 3.30703e-08)
(0.0543591 -4.41669e-09 -3.93049e-08)
(0.0543597 2.25904e-09 3.42321e-08)
(0.0543589 -8.69607e-10 -3.13678e-08)
(0.0543597 -9.33295e-10 3.28031e-08)
(0.0543591 9.54715e-10 -3.1903e-08)
(0.0543595 -2.61257e-09 2.77312e-08)
(0.0543588 7.26005e-12 -2.93325e-08)
(0.05436 1.77709e-09 3.18826e-08)
(0.0543584 -1.70143e-09 -2.70271e-08)
(0.0543602 2.04702e-09 2.64103e-08)
(0.0543584 3.10686e-09 -2.11939e-08)
(0.0543602 -3.30473e-09 2.16058e-08)
(0.0543586 4.60092e-09 -1.71716e-08)
(0.0543601 -3.42528e-09 1.6529e-08)
(0.0543588 2.57435e-09 -1.64196e-08)
(0.0543599 -8.50959e-10 1.42376e-08)
(0.054359 1.20113e-09 -1.24614e-08)
(0.0543596 -3.97434e-09 1.07926e-08)
(0.0543589 1.8827e-09 -1.13382e-08)
(0.0543596 -2.07825e-09 9.16416e-09)
(0.0543588 1.0729e-09 -9.70237e-09)
(0.0543593 7.75358e-10 8.9724e-09)
(0.0543591 3.2389e-09 -5.7066e-09)
(0.0543601 -7.79399e-10 1.15344e-08)
(0.0485322 0.000214453 0.00120614)
(0.0615795 9.9401e-06 5.01327e-05)
(0.051668 -5.94967e-06 -3.32525e-05)
(0.0585172 3.39347e-06 2.14395e-05)
(0.0539963 -2.26662e-06 -1.41928e-05)
(0.0569932 1.49413e-06 9.32041e-06)
(0.0549952 -9.99736e-07 -6.14119e-06)
(0.0563349 6.94627e-07 3.98373e-06)
(0.0554313 -4.89411e-07 -2.5336e-06)
(0.056039 3.68895e-07 1.62262e-06)
(0.055648 -2.34569e-07 -9.26575e-07)
(0.0558901 1.71226e-07 5.20053e-07)
(0.0557528 -1.20407e-07 -2.58719e-07)
(0.0558222 5.5031e-08 8.44885e-08)
(0.0557899 -3.5534e-08 -2.00245e-08)
(0.0558013 3.75074e-09 -3.75765e-08)
(0.0557978 -4.89755e-09 4.00533e-08)
(0.0557971 -2.74514e-09 -4.6792e-08)
(0.0557982 1.78882e-09 5.00011e-08)
(0.0557971 -1.48796e-09 -4.87214e-08)
(0.055798 6.23718e-10 4.70096e-08)
(0.0557967 2.70923e-09 -4.0416e-08)
(0.0557984 -3.69805e-09 4.4089e-08)
(0.0557969 8.05406e-09 -3.73106e-08)
(0.0557983 -8.95976e-09 3.61969e-08)
(0.055797 6.6172e-09 -3.6992e-08)
(0.0557979 -4.70044e-09 3.28329e-08)
(0.0557971 3.63202e-10 -3.8977e-08)
(0.0557977 -5.26393e-10 3.42157e-08)
(0.0557969 9.94988e-10 -3.11837e-08)
(0.0557977 -3.15204e-09 3.23821e-08)
(0.0557971 2.64013e-09 -3.1401e-08)
(0.0557975 -2.42756e-09 2.74582e-08)
(0.0557968 6.87286e-10 -2.92779e-08)
(0.055798 -3.67908e-10 3.16276e-08)
(0.0557964 1.03139e-09 -2.67039e-08)
(0.0557982 -7.984e-10 2.61049e-08)
(0.0557964 4.77661e-09 -2.10993e-08)
(0.0557983 -5.99467e-09 2.12897e-08)
(0.0557966 7.78148e-09 -1.687e-08)
(0.0557981 -6.54613e-09 1.60507e-08)
(0.0557968 6.39513e-09 -1.61866e-08)
(0.0557979 -4.72276e-09 1.41377e-08)
(0.055797 5.06074e-09 -1.21232e-08)
(0.0557976 -6.21711e-09 1.0564e-08)
(0.0557969 3.47191e-09 -1.09311e-08)
(0.0557977 -2.65631e-09 8.78496e-09)
(0.0557969 1.62234e-09 -9.22831e-09)
(0.0557973 -6.4936e-10 8.6541e-09)
(0.0557971 4.68586e-09 -5.48074e-09)
(0.0557981 -2.90606e-09 1.15503e-08)
(0.0485322 -0.000214454 0.00120614)
(0.0615795 -9.93642e-06 5.01322e-05)
(0.051668 5.93956e-06 -3.32518e-05)
(0.0585172 -3.3852e-06 2.1439e-05)
(0.0539961 2.27325e-06 -1.41929e-05)
(0.0569933 -1.51961e-06 9.32137e-06)
(0.0549951 1.03182e-06 -6.14293e-06)
(0.0563349 -7.20592e-07 3.98488e-06)
(0.0554314 4.91433e-07 -2.53364e-06)
(0.0560389 -3.03086e-07 1.62227e-06)
(0.055648 1.82818e-07 -9.2569e-07)
(0.0558901 -7.57477e-08 5.18748e-07)
(0.0557528 1.61232e-08 -2.57662e-07)
(0.0558221 2.17788e-09 8.40139e-08)
(0.0557899 -1.05373e-08 -2.00895e-08)
(0.0558013 1.54221e-09 -3.72191e-08)
(0.0557978 -3.40013e-09 4.00281e-08)
(0.0557971 9.38995e-10 -4.64801e-08)
(0.0557982 -4.00298e-09 4.93461e-08)
(0.0557971 2.86504e-09 -4.83903e-08)
(0.055798 -3.27561e-09 4.69578e-08)
(0.0557967 5.86733e-09 -4.03366e-08)
(0.0557984 -1.00041e-08 4.36652e-08)
(0.0557969 1.2211e-08 -3.71566e-08)
(0.0557983 -1.3642e-08 3.60687e-08)
(0.055797 1.22884e-08 -3.66115e-08)
(0.0557979 -9.24246e-09 3.26808e-08)
(0.0557971 4.7657e-09 -3.8706e-08)
(0.0557977 -3.07919e-09 3.42224e-08)
(0.0557969 2.63626e-09 -3.10027e-08)
(0.0557977 -4.89888e-09 3.19699e-08)
(0.0557971 3.88455e-09 -3.09159e-08)
(0.0557975 -1.92342e-09 2.7216e-08)
(0.0557967 1.1564e-09 -2.92536e-08)
(0.055798 -2.18034e-09 3.13893e-08)
(0.0557964 3.51357e-09 -2.63873e-08)
(0.0557982 -3.42877e-09 2.58233e-08)
(0.0557964 6.10735e-09 -2.10632e-08)
(0.0557983 -8.34818e-09 2.10162e-08)
(0.0557966 1.06413e-08 -1.66315e-08)
(0.0557981 -9.32444e-09 1.56676e-08)
(0.0557968 9.7677e-09 -1.60134e-08)
(0.0557979 -8.47953e-09 1.40527e-08)
(0.055797 8.81017e-09 -1.18137e-08)
(0.0557976 -8.07518e-09 1.04035e-08)
(0.0557969 4.82838e-09 -1.05949e-08)
(0.0557976 -3.0885e-09 8.46908e-09)
(0.0557969 2.03882e-09 -8.78393e-09)
(0.0557973 -1.96774e-09 8.31766e-09)
(0.0557971 5.81209e-09 -5.22187e-09)
(0.0557981 -4.65558e-09 1.15409e-08)
(0.0473815 -0.000635464 0.00121489)
(0.0600041 -2.94082e-05 5.06222e-05)
(0.0503056 1.7477e-05 -3.33144e-05)
(0.0570278 -1.00446e-05 2.14845e-05)
(0.0525927 6.72443e-06 -1.42245e-05)
(0.0555319 -4.47414e-06 9.34648e-06)
(0.0535729 3.02249e-06 -6.1615e-06)
(0.0548864 -2.1047e-06 3.99738e-06)
(0.054 1.44969e-06 -2.54061e-06)
(0.054597 -9.58951e-07 1.62457e-06)
(0.054212 5.9106e-07 -9.25995e-07)
(0.0544509 -3.18305e-07 5.17683e-07)
(0.0543152 1.50697e-07 -2.56498e-07)
(0.0543839 -5.08381e-08 8.36056e-08)
(0.0543519 1.43152e-08 -1.99922e-08)
(0.0543632 -2.26195e-10 -3.67977e-08)
(0.0543597 -2.68491e-09 3.9961e-08)
(0.0543591 4.76713e-09 -4.61798e-08)
(0.0543602 -9.94326e-09 4.876e-08)
(0.0543591 7.56059e-09 -4.80939e-08)
(0.05436 -7.67473e-09 4.69293e-08)
(0.0543587 9.04403e-09 -4.04218e-08)
(0.0543603 -1.60487e-08 4.33976e-08)
(0.0543589 1.60198e-08 -3.71786e-08)
(0.0543602 -1.78867e-08 3.6075e-08)
(0.054359 1.75757e-08 -3.63503e-08)
(0.0543598 -1.34189e-08 3.2652e-08)
(0.0543591 9.41739e-09 -3.84626e-08)
(0.0543597 -5.99587e-09 3.42079e-08)
(0.0543589 4.40418e-09 -3.08507e-08)
(0.0543597 -6.66892e-09 3.1594e-08)
(0.054359 5.16235e-09 -3.04845e-08)
(0.0543595 -1.55532e-09 2.70556e-08)
(0.0543588 1.97173e-09 -2.92297e-08)
(0.05436 -4.34361e-09 3.11427e-08)
(0.0543584 5.98359e-09 -2.61159e-08)
(0.0543602 -6.06841e-09 2.55864e-08)
(0.0543584 7.28706e-09 -2.11013e-08)
(0.0543602 -1.0517e-08 2.0792e-08)
(0.0543586 1.30878e-08 -1.6461e-08)
(0.0543601 -1.17393e-08 1.54125e-08)
(0.0543588 1.2708e-08 -1.59204e-08)
(0.0543599 -1.20229e-08 1.39684e-08)
(0.054359 1.22341e-08 -1.1537e-08)
(0.0543596 -9.5634e-09 1.03401e-08)
(0.0543589 5.99456e-09 -1.03626e-08)
(0.0543596 -3.45924e-09 8.2519e-09)
(0.0543588 2.43298e-09 -8.41408e-09)
(0.0543593 -3.1504e-09 8.00324e-09)
(0.0543591 6.732e-09 -4.96113e-09)
(0.0543601 -6.07499e-09 1.1541e-08)
(0.0449729 -0.00103103 0.00123207)
(0.0567345 -4.73778e-05 5.14066e-05)
(0.0474869 2.79196e-05 -3.34161e-05)
(0.0539323 -1.63105e-05 2.15697e-05)
(0.0496837 1.08927e-05 -1.42827e-05)
(0.0524976 -7.24349e-06 9.39005e-06)
(0.0506232 4.88699e-06 -6.19087e-06)
(0.0518797 -3.39481e-06 4.01547e-06)
(0.0510306 2.33828e-06 -2.54932e-06)
(0.0516043 -1.56251e-06 1.62583e-06)
(0.0512328 9.66593e-07 -9.254e-07)
(0.0514645 -5.41322e-07 5.1569e-07)
(0.0513322 2.74124e-07 -2.54509e-07)
(0.0513996 -1.00815e-07 8.29464e-08)
(0.0513681 3.68945e-08 -1.95046e-08)
(0.0513794 -1.64615e-09 -3.60289e-08)
(0.0513758 -2.99451e-09 3.97046e-08)
(0.0513753 8.85975e-09 -4.61803e-08)
(0.0513763 -1.57401e-08 4.81631e-08)
(0.0513753 1.25168e-08 -4.77641e-08)
(0.0513761 -1.24919e-08 4.67591e-08)
(0.0513749 1.26782e-08 -4.08811e-08)
(0.0513764 -2.16921e-08 4.3301e-08)
(0.0513751 1.97195e-08 -3.7551e-08)
(0.0513763 -2.18144e-08 3.63727e-08)
(0.0513751 2.23973e-08 -3.62931e-08)
(0.051376 -1.73927e-08 3.29261e-08)
(0.0513752 1.40472e-08 -3.79681e-08)
(0.0513759 -9.20429e-09 3.40039e-08)
(0.051375 6.48668e-09 -3.0874e-08)
(0.0513758 -8.4509e-09 3.12704e-08)
(0.0513752 6.53288e-09 -3.01663e-08)
(0.0513756 -1.75533e-09 2.7172e-08)
(0.051375 3.23311e-09 -2.91413e-08)
(0.051376 -6.69214e-09 3.06454e-08)
(0.0513746 8.4765e-09 -2.59636e-08)
(0.0513763 -8.68482e-09 2.54334e-08)
(0.0513746 8.52459e-09 -2.13297e-08)
(0.0513763 -1.24305e-08 2.06844e-08)
(0.0513748 1.50941e-08 -1.6512e-08)
(0.0513762 -1.38386e-08 1.53814e-08)
(0.051375 1.51125e-08 -1.59449e-08)
(0.051376 -1.50483e-08 1.39255e-08)
(0.0513751 1.5112e-08 -1.14048e-08)
(0.0513758 -1.07929e-08 1.04214e-08)
(0.051375 7.10004e-09 -1.02825e-08)
(0.0513758 -3.93696e-09 8.19713e-09)
(0.051375 2.91738e-09 -8.18404e-09)
(0.0513754 -4.18318e-09 7.82591e-09)
(0.0513753 7.35702e-09 -4.70876e-09)
(0.0513762 -6.95236e-09 1.14541e-08)
(0.0410636 -0.00137893 0.00125633)
(0.0515001 -6.18287e-05 5.20676e-05)
(0.042998 3.6297e-05 -3.34679e-05)
(0.0489669 -2.17154e-05 2.16462e-05)
(0.0450369 1.44675e-05 -1.43302e-05)
(0.0476375 -9.6279e-06 9.42055e-06)
(0.0459068 6.48826e-06 -6.20686e-06)
(0.0470666 -4.48815e-06 4.02042e-06)
(0.0462813 3.07677e-06 -2.54689e-06)
(0.0468144 -2.04752e-06 1.61905e-06)
(0.0464669 1.26381e-06 -9.20348e-07)
(0.0466851 -7.13833e-07 5.11016e-07)
(0.0465596 3.67002e-07 -2.50705e-07)
(0.0466242 -1.39551e-07 8.13417e-08)
(0.0465939 5.19745e-08 -1.79433e-08)
(0.0466049 -2.5699e-09 -3.60895e-08)
(0.0466013 -4.84505e-09 4.04695e-08)
(0.046601 1.41772e-08 -4.70787e-08)
(0.0466017 -2.1011e-08 4.84203e-08)
(0.0466009 1.77072e-08 -4.82106e-08)
(0.0466016 -1.76063e-08 4.72604e-08)
(0.0466006 1.81822e-08 -4.18722e-08)
(0.0466018 -2.70307e-08 4.36615e-08)
(0.0466007 2.42629e-08 -3.83368e-08)
(0.0466017 -2.60982e-08 3.70443e-08)
(0.0466007 2.6886e-08 -3.66399e-08)
(0.0466015 -2.20146e-08 3.35858e-08)
(0.0466008 1.79478e-08 -3.79205e-08)
(0.0466014 -1.25265e-08 3.43045e-08)
(0.0466006 9.56395e-09 -3.14646e-08)
(0.0466013 -1.03228e-08 3.15351e-08)
(0.0466008 8.26102e-09 -3.04536e-08)
(0.0466011 -3.6485e-09 2.78633e-08)
(0.0466006 5.23434e-09 -2.95728e-08)
(0.0466015 -8.74229e-09 3.06507e-08)
(0.0466002 1.13028e-08 -2.62853e-08)
(0.0466017 -1.13685e-08 2.5684e-08)
(0.0466003 1.04819e-08 -2.18701e-08)
(0.0466017 -1.40904e-08 2.08509e-08)
(0.0466004 1.69088e-08 -1.67671e-08)
(0.0466016 -1.59366e-08 1.5565e-08)
(0.0466006 1.69926e-08 -1.61364e-08)
(0.0466015 -1.71152e-08 1.40177e-08)
(0.0466007 1.71925e-08 -1.14067e-08)
(0.0466013 -1.20904e-08 1.06398e-08)
(0.0466006 8.45114e-09 -1.03618e-08)
(0.0466013 -4.89139e-09 8.34754e-09)
(0.0466006 3.67929e-09 -8.2034e-09)
(0.046601 -5.13187e-09 7.90524e-09)
(0.0466009 7.46679e-09 -4.73314e-09)
(0.0466017 -6.65146e-09 1.13913e-08)
(0.0351905 -0.00163307 0.00128468)
(0.0437813 -6.8377e-05 5.16954e-05)
(0.0364265 4.04227e-05 -3.30873e-05)
(0.0416299 -2.48729e-05 2.14634e-05)
(0.0382079 1.65341e-05 -1.41944e-05)
(0.0404698 -1.10069e-05 9.31705e-06)
(0.0389664 7.39861e-06 -6.13027e-06)
(0.0399733 -5.06687e-06 3.96036e-06)
(0.0392899 3.43099e-06 -2.50258e-06)
(0.0397566 -2.24493e-06 1.58931e-06)
(0.0394497 1.3708e-06 -9.02548e-07)
(0.0396442 -7.64736e-07 4.99779e-07)
(0.0395313 3.85656e-07 -2.4292e-07)
(0.0395902 -1.47099e-07 7.72702e-08)
(0.0395623 4.75115e-08 -1.49489e-08)
(0.0395727 3.20634e-09 -3.98193e-08)
(0.0395692 -1.37149e-08 4.42678e-08)
(0.0395692 2.26883e-08 -4.82387e-08)
(0.0395696 -2.8155e-08 5.08511e-08)
(0.0395691 2.58208e-08 -5.05596e-08)
(0.0395695 -2.60309e-08 4.99842e-08)
(0.0395687 2.71e-08 -4.2399e-08)
(0.0395697 -3.33955e-08 4.48573e-08)
(0.0395687 3.09609e-08 -3.88985e-08)
(0.0395696 -3.18049e-08 3.76405e-08)
(0.0395687 3.18064e-08 -3.74949e-08)
(0.0395694 -2.78172e-08 3.37639e-08)
(0.0395688 2.33837e-08 -4.02291e-08)
(0.0395694 -1.83934e-08 3.64481e-08)
(0.0395686 1.52906e-08 -3.23929e-08)
(0.0395693 -1.45959e-08 3.3175e-08)
(0.0395688 1.25679e-08 -3.18955e-08)
(0.039569 -9.34365e-09 2.86369e-08)
(0.0395687 1.0641e-08 -3.13705e-08)
(0.0395694 -1.32886e-08 3.30685e-08)
(0.0395684 1.56849e-08 -2.71796e-08)
(0.0395696 -1.53648e-08 2.67019e-08)
(0.0395684 1.43181e-08 -2.23811e-08)
(0.0395695 -1.66432e-08 2.16317e-08)
(0.0395685 1.88425e-08 -1.69571e-08)
(0.0395695 -1.81668e-08 1.57013e-08)
(0.0395687 1.87282e-08 -1.64946e-08)
(0.0395694 -1.85316e-08 1.46961e-08)
(0.0395687 1.82147e-08 -1.1633e-08)
(0.0395693 -1.36731e-08 1.083e-08)
(0.0395686 1.02579e-08 -1.04733e-08)
(0.0395693 -6.7167e-09 8.57707e-09)
(0.0395687 5.15899e-09 -8.49943e-09)
(0.039569 -6.03092e-09 8.04884e-09)
(0.0395689 7.53141e-09 -5.57789e-09)
(0.0395697 -5.76236e-09 1.20004e-08)
(0.0264298 -0.00159027 0.00126203)
(0.0325341 -5.74332e-05 4.68615e-05)
(0.0269403 3.45141e-05 -3.01295e-05)
(0.0309231 -2.17989e-05 1.9619e-05)
(0.0283067 1.4462e-05 -1.29646e-05)
(0.0300338 -9.62224e-06 8.52172e-06)
(0.0288878 6.44374e-06 -5.61618e-06)
(0.0296546 -4.34829e-06 3.64599e-06)
(0.0291329 2.88999e-06 -2.31617e-06)
(0.0294915 -1.83071e-06 1.46384e-06)
(0.029253 1.09699e-06 -8.32698e-07)
(0.029406 -5.86744e-07 4.55053e-07)
(0.029316 2.74031e-07 -2.17311e-07)
(0.0293637 -1.00292e-07 6.8513e-08)
(0.029341 1.55373e-08 -1.04896e-08)
(0.0293498 1.62872e-08 -3.63979e-08)
(0.0293467 -2.8331e-08 4.0824e-08)
(0.0293469 2.96313e-08 -4.32984e-08)
(0.0293471 -3.32522e-08 4.60621e-08)
(0.0293468 3.26397e-08 -4.57619e-08)
(0.029347 -3.37052e-08 4.55138e-08)
(0.0293465 3.36455e-08 -3.86565e-08)
(0.0293471 -3.52974e-08 4.07596e-08)
(0.0293464 3.41516e-08 -3.55333e-08)
(0.029347 -3.364e-08 3.44196e-08)
(0.0293464 3.22721e-08 -3.44085e-08)
(0.029347 -2.98155e-08 3.10766e-08)
(0.0293464 2.73236e-08 -3.67248e-08)
(0.029347 -2.42503e-08 3.32672e-08)
(0.0293463 2.04792e-08 -2.92207e-08)
(0.0293468 -1.88573e-08 2.97577e-08)
(0.0293464 1.69944e-08 -2.85515e-08)
(0.0293466 -1.60816e-08 2.56218e-08)
(0.0293465 1.74439e-08 -2.82766e-08)
(0.0293468 -1.87724e-08 3.00682e-08)
(0.0293462 1.897e-08 -2.4745e-08)
(0.029347 -1.80689e-08 2.41651e-08)
(0.0293462 1.7297e-08 -2.02464e-08)
(0.0293469 -1.752e-08 1.96037e-08)
(0.0293463 1.80013e-08 -1.56909e-08)
(0.0293469 -1.76763e-08 1.47707e-08)
(0.0293464 1.79592e-08 -1.52008e-08)
(0.0293469 -1.7271e-08 1.37498e-08)
(0.0293464 1.57818e-08 -1.11238e-08)
(0.0293469 -1.35739e-08 1.02682e-08)
(0.0293463 1.05763e-08 -9.60322e-09)
(0.0293469 -7.93457e-09 7.85774e-09)
(0.0293464 6.1584e-09 -7.506e-09)
(0.0293466 -5.89584e-09 7.04448e-09)
(0.0293465 7.69481e-09 -5.77249e-09)
(0.0293472 -3.19505e-09 1.05099e-08)
(0.0126129 -0.000778294 0.000778294)
(0.0152865 -2.53047e-05 2.53057e-05)
(0.0125641 1.66137e-05 -1.66165e-05)
(0.0145074 -1.08954e-05 1.08942e-05)
(0.0132323 7.21158e-06 -7.20855e-06)
(0.0140723 -4.78823e-06 4.78368e-06)
(0.013516 3.19274e-06 -3.19133e-06)
(0.013888 -2.12545e-06 2.13174e-06)
(0.0136338 1.39373e-06 -1.40058e-06)
(0.0138103 -8.76409e-07 8.97234e-07)
(0.0136914 5.26057e-07 -5.25571e-07)
(0.0137687 -2.84877e-07 2.89458e-07)
(0.0137227 1.33484e-07 -1.43534e-07)
(0.0137474 -5.2642e-08 5.21253e-08)
(0.0137355 8.01043e-09 -1.54548e-08)
(0.0137402 8.66535e-09 -7.82235e-09)
(0.0137386 -1.64289e-08 1.19701e-08)
(0.0137388 1.69704e-08 -1.56856e-08)
(0.0137388 -1.813e-08 1.63151e-08)
(0.0137387 1.8511e-08 -1.6345e-08)
(0.0137387 -1.88843e-08 1.66258e-08)
(0.0137385 1.86432e-08 -1.60132e-08)
(0.0137387 -1.81449e-08 1.69396e-08)
(0.0137385 1.78872e-08 -1.54384e-08)
(0.0137387 -1.71524e-08 1.5487e-08)
(0.0137384 1.62676e-08 -1.54179e-08)
(0.0137387 -1.54862e-08 1.40436e-08)
(0.0137384 1.47878e-08 -1.37024e-08)
(0.0137387 -1.36468e-08 1.19575e-08)
(0.0137383 1.18836e-08 -1.07061e-08)
(0.0137387 -1.07696e-08 9.92548e-09)
(0.0137384 9.96035e-09 -9.36956e-09)
(0.0137385 -1.00321e-08 8.59971e-09)
(0.0137385 1.05352e-08 -9.12278e-09)
(0.0137386 -1.08374e-08 9.60468e-09)
(0.0137384 1.04012e-08 -9.21387e-09)
(0.0137387 -9.86091e-09 9.0145e-09)
(0.0137384 9.50392e-09 -7.86055e-09)
(0.0137386 -8.94473e-09 7.91033e-09)
(0.0137384 8.59766e-09 -7.49952e-09)
(0.0137387 -8.6949e-09 6.9955e-09)
(0.0137385 8.65243e-09 -6.77402e-09)
(0.0137387 -7.99168e-09 6.65916e-09)
(0.0137384 7.04738e-09 -6.13329e-09)
(0.0137387 -6.66367e-09 4.75857e-09)
(0.0137384 5.45568e-09 -3.96649e-09)
(0.0137387 -4.398e-09 2.83307e-09)
(0.0137384 3.65112e-09 -2.2427e-09)
(0.0137385 -3.16503e-09 2.41215e-09)
(0.0137385 3.38686e-09 -1.86371e-09)
(0.0137388 -1.66242e-09 3.45568e-09)
(0.0264299 0.00126203 0.00159027)
(0.0325341 4.6866e-05 5.74347e-05)
(0.0269405 -3.01351e-05 -3.45151e-05)
(0.0309229 1.96244e-05 2.17976e-05)
(0.0283073 -1.29687e-05 -1.44587e-05)
(0.0300332 8.51184e-06 9.60664e-06)
(0.0288882 -5.60329e-06 -6.43023e-06)
(0.0296544 3.63004e-06 4.34418e-06)
(0.0291325 -2.30752e-06 -2.8944e-06)
(0.029492 1.46261e-06 1.874e-06)
(0.0292526 -8.33194e-07 -1.11942e-06)
(0.0294063 4.62391e-07 6.23135e-07)
(0.0293159 -2.23107e-07 -3.14784e-07)
(0.0293639 7.05408e-08 1.17252e-07)
(0.029341 -9.2121e-09 -3.36276e-08)
(0.0293498 -4.19804e-08 -1.33318e-08)
(0.0293468 4.30597e-08 2.03836e-08)
(0.0293469 -4.66069e-08 -2.94905e-08)
(0.0293471 5.35345e-08 3.20267e-08)
(0.0293468 -5.00629e-08 -3.08522e-08)
(0.029347 4.77476e-08 2.99597e-08)
(0.0293465 -3.96933e-08 -2.96481e-08)
(0.0293471 4.50661e-08 3.0586e-08)
(0.0293465 -3.70179e-08 -2.6604e-08)
(0.029347 3.55676e-08 2.5876e-08)
(0.0293464 -3.79444e-08 -2.55051e-08)
(0.029347 3.22223e-08 2.5832e-08)
(0.0293464 -4.08858e-08 -2.45159e-08)
(0.029347 3.46064e-08 2.11988e-08)
(0.0293463 -3.14168e-08 -1.8437e-08)
(0.0293469 3.4485e-08 1.58688e-08)
(0.0293464 -3.37602e-08 -1.4303e-08)
(0.0293466 2.82584e-08 1.38629e-08)
(0.0293465 -2.95833e-08 -1.54186e-08)
(0.0293468 3.38854e-08 1.68978e-08)
(0.0293462 -2.79741e-08 -1.71962e-08)
(0.029347 2.71889e-08 1.62404e-08)
(0.0293462 -2.08646e-08 -1.36822e-08)
(0.0293469 2.20723e-08 1.11122e-08)
(0.0293463 -1.71255e-08 -1.04365e-08)
(0.0293469 1.75222e-08 1.18298e-08)
(0.0293464 -1.68091e-08 -1.29684e-08)
(0.0293469 1.414e-08 1.0173e-08)
(0.0293464 -1.28146e-08 -8.87826e-09)
(0.0293469 1.13309e-08 9.71161e-09)
(0.0293463 -1.20339e-08 -8.16061e-09)
(0.0293469 1.02166e-08 5.45936e-09)
(0.0293464 -1.0856e-08 -4.55449e-09)
(0.0293466 9.53577e-09 5.23151e-09)
(0.0293465 -8.01092e-09 -4.47143e-09)
(0.0293472 1.09497e-08 4.61915e-09)
(0.0617332 0.00282765 0.00282765)
(0.0770534 0.000114394 0.000114393)
(0.0641971 -6.5822e-05 -6.58177e-05)
(0.0732881 4.06784e-05 4.06766e-05)
(0.0673079 -2.70372e-05 -2.70378e-05)
(0.0712635 1.80343e-05 1.80338e-05)
(0.0686388 -1.21085e-05 -1.21045e-05)
(0.0703918 8.22392e-06 8.2161e-06)
(0.0692083 -5.50872e-06 -5.50363e-06)
(0.0700102 3.54107e-06 3.53396e-06)
(0.0694778 -2.13712e-06 -2.14786e-06)
(0.0698171 1.19275e-06 1.20117e-06)
(0.0696154 -6.0255e-07 -6.05914e-07)
(0.0697255 2.39317e-07 2.50058e-07)
(0.0696734 -6.81058e-08 -6.45995e-08)
(0.0696958 -1.39335e-08 -1.18787e-08)
(0.0696878 3.28827e-08 3.36853e-08)
(0.0696887 -5.45997e-08 -5.49118e-08)
(0.0696893 5.31829e-08 5.46625e-08)
(0.0696882 -5.36457e-08 -5.51084e-08)
(0.0696889 5.30673e-08 5.26505e-08)
(0.0696875 -5.51519e-08 -5.69294e-08)
(0.0696888 4.92706e-08 4.6732e-08)
(0.0696872 -4.4247e-08 -4.16848e-08)
(0.0696883 4.10028e-08 3.83021e-08)
(0.0696868 -4.10683e-08 -3.62956e-08)
(0.0696885 4.5592e-08 4.57689e-08)
(0.0696874 -3.86938e-08 -3.78855e-08)
(0.0696885 3.56161e-08 3.55392e-08)
(0.0696872 -3.11428e-08 -3.1418e-08)
(0.0696883 2.17112e-08 2.01768e-08)
(0.0696874 -1.97987e-08 -1.71254e-08)
(0.069688 2.25918e-08 2.33035e-08)
(0.0696874 -2.58749e-08 -2.58654e-08)
(0.0696886 2.69918e-08 2.70972e-08)
(0.0696871 -2.93318e-08 -2.96424e-08)