/*--------------------------------*- C++ -*----------------------------------*\
  =========                 |
  \\      /  F ield         | OpenFOAM: The Open Source CFD Toolbox
   \\    /   O peration     | Website:  https://openfoam.org
    \\  /    A nd           | Version:  13
     \\/     M anipulation  |
\*---------------------------------------------------------------------------*/
FoamFile
{
    format      ascii;
    class       surfaceScalarField;
    location    "30";
    object      phi;
}
// * * * * * * * * * * * * * * * * * * * * * * * * * * * * * * * * * * * * * //

dimensions      [0 3 -1 0 0 0 0];

internalField   nonuniform List<scalar> 
10260
(
2.77164e-13
6.94918e-13
6.94918e-13
2.178e-13
2.96828e-14
2.96827e-14
2.5328e-13
-1.77401e-14
-1.77403e-14
2.31699e-13
1.07905e-14
1.07908e-14
2.44842e-13
-6.57068e-15
-6.57089e-15
2.36835e-13
4.00692e-15
4.00699e-15
2.41718e-13
-2.45038e-15
-2.45008e-15
2.38768e-13
1.48263e-15
1.4822e-15
2.40513e-13
-8.75436e-16
-8.75558e-16
2.39507e-13
5.04009e-16
5.04236e-16
2.40065e-13
-2.79331e-16
-2.79668e-16
2.39766e-13
1.49497e-16
1.49851e-16
2.39918e-13
-7.67267e-17
-7.68458e-17
2.39842e-13
3.72446e-17
3.75169e-17
2.3988e-13
-1.88871e-17
-1.89982e-17
2.39861e-13
9.71176e-18
9.72637e-18
2.39872e-13
-5.67013e-18
-5.6548e-18
2.39866e-13
3.37919e-18
3.36697e-18
2.3987e-13
-2.31275e-18
-2.29213e-18
2.39867e-13
1.8373e-18
1.80979e-18
2.3987e-13
-1.41653e-18
-1.38572e-18
2.39869e-13
4.29376e-19
3.96682e-19
2.39869e-13
-1.05028e-20
1.36196e-20
2.3987e-13
-6.4412e-19
-6.70309e-19
2.39868e-13
1.30954e-18
1.32516e-18
2.39871e-13
-1.78834e-18
-1.80494e-18
2.39867e-13
1.93971e-18
1.94848e-18
2.39874e-13
-3.30722e-18
-3.31491e-18
2.39868e-13
2.84829e-18
2.8527e-18
2.39877e-13
-4.1539e-18
-4.18417e-18
2.39869e-13
4.17033e-18
4.19862e-18
2.39882e-13
-5.8809e-18
-5.92022e-18
2.39865e-13
7.82434e-18
7.86145e-18
2.39878e-13
-6.03147e-18
-6.08784e-18
2.39863e-13
6.96601e-18
7.01936e-18
2.39877e-13
-5.59246e-18
-5.63687e-18
7.72469e-18
7.68245e-18
5.28352e-13
7.41585e-13
1.09198e-12
4.69264e-13
3.81026e-14
5.06719e-14
5.04333e-13
-2.26577e-14
-3.01518e-14
4.83046e-13
1.37759e-14
1.83025e-14
4.96009e-13
-8.39447e-15
-1.1138e-14
4.88116e-13
5.14242e-15
6.78009e-15
4.92928e-13
-3.18335e-15
-4.13149e-15
4.90025e-13
1.945e-15
2.4854e-15
4.91735e-13
-1.14982e-15
-1.45537e-15
4.90756e-13
6.63992e-16
8.28227e-16
4.91292e-13
-3.69529e-16
-4.51429e-16
4.91009e-13
1.99801e-16
2.36293e-16
4.91149e-13
-1.04358e-16
-1.18068e-16
4.91079e-13
4.65662e-17
5.64797e-17
4.91114e-13
-2.4122e-17
-2.8688e-17
4.91097e-13
1.28937e-17
1.48923e-17
4.91108e-13
-7.31182e-18
-9.1277e-18
4.91101e-13
3.82813e-18
5.92839e-18
4.91106e-13
-2.34568e-18
-4.26003e-18
4.91103e-13
2.19973e-18
3.51382e-18
4.91106e-13
-1.71209e-18
-2.83742e-18
4.91105e-13
-1.9261e-19
1.23949e-18
4.91105e-13
6.59153e-19
-6.07505e-19
4.91106e-13
-1.24971e-18
-7.41985e-19
4.91104e-13
2.10655e-18
2.03165e-18
4.91107e-13
-2.56162e-18
-3.02161e-18
4.91104e-13
2.51304e-18
3.2538e-18
4.91111e-13
-4.37185e-18
-6.10526e-18
4.91106e-13
3.52411e-18
5.01426e-18
4.91116e-13
-4.39207e-18
-8.14419e-18
4.91107e-13
4.31063e-18
8.08453e-18
4.91123e-13
-3.72011e-18
-1.23683e-17
4.91102e-13
6.20758e-18
1.68462e-17
4.91117e-13
-3.11185e-18
-1.34146e-17
4.911e-13
4.5424e-18
1.57727e-17
4.91115e-13
2.80914e-19
-1.35161e-17
3.88532e-18
1.74597e-17
6.70017e-13
5.69126e-13
1.16944e-12
6.19997e-13
3.11223e-14
5.70038e-14
6.49667e-13
-1.84405e-14
-3.38878e-14
6.31691e-13
1.12057e-14
2.05468e-14
6.42635e-13
-6.83251e-15
-1.25042e-14
6.35982e-13
4.19755e-15
7.61979e-15
6.40021e-13
-2.61966e-15
-4.65432e-15
6.37598e-13
1.61244e-15
2.80013e-15
6.39017e-13
-9.53615e-16
-1.635e-15
6.38212e-13
5.51399e-16
9.26338e-16
6.38647e-13
-3.06932e-16
-5.02334e-16
6.38422e-13
1.66231e-16
2.61569e-16
6.3853e-13
-8.71921e-17
-1.30194e-16
6.38475e-13
3.66441e-17
6.01974e-17
6.38502e-13
-1.93605e-17
-3.06604e-17
6.3849e-13
1.0127e-17
1.65163e-17
6.38498e-13
-5.81348e-18
-1.03266e-17
6.38493e-13
2.78649e-18
6.55324e-18
6.38497e-13
-1.52943e-18
-4.7831e-18
6.38494e-13
1.71573e-18
4.0268e-18
6.38497e-13
-1.37748e-18
-3.30765e-18
6.38496e-13
-6.84891e-19
1.4122e-18
6.38496e-13
9.25221e-19
-5.91161e-19
6.38497e-13
-1.39567e-18
-7.6839e-19
6.38495e-13
2.08629e-18
2.35707e-18
6.38498e-13
-2.30951e-18
-3.56573e-18
6.38495e-13
1.90286e-18
3.98565e-18
6.38502e-13
-4.08746e-18
-6.76364e-18
6.38497e-13
2.62291e-18
5.88568e-18
6.38506e-13
-3.66102e-18
-8.52534e-18
6.38499e-13
2.6627e-18
9.33139e-18
6.38514e-13
-1.49832e-18
-1.2765e-17
6.38494e-13
4.17008e-18
1.76447e-17
6.38509e-13
2.74323e-19
-1.4715e-17
6.38491e-13
1.55419e-18
1.7239e-17
6.38508e-13
4.21326e-18
-1.34661e-17
4.30243e-19
1.79652e-17
7.51724e-13
3.03021e-13
1.18138e-12
7.07091e-13
1.70013e-14
5.87578e-14
7.33662e-13
-1.00526e-14
-3.49595e-14
7.17579e-13
6.1041e-15
2.1186e-14
7.27368e-13
-3.72147e-15
-1.28989e-14
7.21426e-13
2.29058e-15
7.87071e-15
7.25015e-13
-1.4361e-15
-4.82427e-15
7.22873e-13
8.88155e-16
2.9107e-15
7.24123e-13
-5.23067e-16
-1.70122e-15
7.23418e-13
3.00829e-16
9.6499e-16
7.23796e-13
-1.67345e-16
-5.23172e-16
7.23604e-13
8.967e-17
2.72924e-16
7.23694e-13
-4.76749e-17
-1.35655e-16
7.23646e-13
1.83569e-17
6.15085e-17
7.2367e-13
-1.027e-17
-3.12776e-17
7.2366e-13
5.09428e-18
1.68803e-17
7.23668e-13
-3.08323e-18
-1.05728e-17
7.23662e-13
1.42528e-18
6.49537e-18
7.23667e-13
-7.47083e-19
-4.65281e-18
7.23664e-13
1.00622e-18
3.99743e-18
7.23666e-13
-8.52807e-19
-3.28731e-18
7.23665e-13
-4.68833e-19
1.01251e-18
7.23666e-13
5.17537e-19
-2.01285e-19
7.23666e-13
-8.02357e-19
-1.18478e-18
7.23665e-13
1.20683e-18
2.81379e-18
7.23667e-13
-1.26209e-18
-3.99422e-18
7.23664e-13
8.99048e-19
4.17519e-18
7.23671e-13
-2.53413e-18
-7.34427e-18
7.23666e-13
1.3204e-18
5.93214e-18
7.23675e-13
-2.16222e-18
-8.7359e-18
7.23667e-13
1.16938e-18
8.99613e-18
7.23683e-13
-1.55241e-19
-1.21089e-17
7.23662e-13
2.28733e-18
1.73657e-17
7.23679e-13
1.25273e-18
-1.32331e-17
7.2366e-13
2.51732e-19
1.61578e-17
7.23679e-13
3.83946e-18
-1.09713e-17
-1.18667e-18
1.66203e-17
7.89527e-13
3.48231e-18
1.18049e-12
7.4743e-13
-8.70423e-19
5.91032e-14
7.72569e-13
2.0399e-18
-3.51951e-14
7.57356e-13
-1.30949e-18
2.13201e-14
7.66614e-13
1.72673e-18
-1.29802e-14
7.61e-13
6.85999e-18
7.91951e-15
7.64379e-13
-7.70471e-18
-4.86017e-15
7.62369e-13
6.44585e-18
2.93707e-15
7.63541e-13
8.338e-19
-1.71707e-15
7.62882e-13
-5.27439e-18
9.75592e-16
7.63235e-13
2.72315e-18
-5.2878e-16
7.63056e-13
-4.06258e-18
2.76492e-16
7.6314e-13
6.32362e-19
-1.3741e-16
7.63095e-13
-3.03702e-18
6.20684e-17
7.63117e-13
6.42346e-19
-3.17208e-17
7.63107e-13
-5.57687e-19
1.68648e-17
7.63115e-13
-7.64694e-21
-1.04969e-17
7.6311e-13
-1.59067e-20
6.43747e-18
7.63114e-13
-7.72736e-20
-4.49678e-18
7.63111e-13
1.19288e-19
4.04333e-18
7.63114e-13
-1.00026e-19
-3.38842e-18
7.63112e-13
1.35633e-19
7.81478e-19
7.63113e-13
-3.75018e-20
-1.96954e-19
7.63114e-13
9.95128e-20
-1.32026e-18
7.63112e-13
3.66922e-20
2.88156e-18
7.63115e-13
-5.67002e-20
-3.94766e-18
7.63112e-13
2.42761e-19
3.7306e-18
7.63117e-13
-1.03027e-20
-7.89597e-18
7.63113e-13
1.9435e-19
5.60547e-18
7.63121e-13
4.38625e-19
-9.51822e-18
7.63114e-13
1.42855e-19
8.49316e-18
7.6313e-13
1.35872e-18
-1.24027e-17
7.63109e-13
-9.34011e-19
1.8496e-17
7.63126e-13
7.05099e-19
-1.22831e-17
7.63107e-13
-6.57176e-19
1.60528e-17
7.63127e-13
1.61353e-18
-1.01768e-17
-3.19053e-18
1.73502e-17
7.89527e-13
-3.03016e-13
1.18049e-12
7.4743e-13
-1.70029e-14
5.91034e-14
7.7257e-13
1.00565e-14
-3.51952e-14
7.57356e-13
-6.10657e-15
2.13202e-14
7.66614e-13
3.72478e-15
-1.29802e-14
7.61e-13
-2.2775e-15
7.91951e-15
7.64379e-13
1.41991e-15
-4.85945e-15
7.62369e-13
-8.74252e-16
2.93623e-15
7.63541e-13
5.23783e-16
-1.71683e-15
7.62882e-13
-3.10087e-16
9.75519e-16
7.63235e-13
1.72168e-16
-5.2881e-16
7.63056e-13
-9.69406e-17
2.76311e-16
7.6314e-13
4.86286e-17
-1.3741e-16
7.63095e-13
-2.41062e-17
6.20816e-17
7.63117e-13
1.14295e-17
-3.1692e-17
7.63107e-13
-6.07359e-18
1.69002e-17
7.63115e-13
3.07851e-18
-1.05172e-17
7.6311e-13
-1.4533e-18
6.44438e-18
7.63114e-13
6.34184e-19
-4.52635e-18
7.63111e-13
-7.58369e-19
4.01731e-18
7.63114e-13
6.35625e-19
-3.34956e-18
7.63112e-13
6.99186e-19
8.14061e-19
7.63113e-13
-6.08e-19
-1.70104e-19
7.63114e-13
9.9857e-19
-1.33036e-18
7.63112e-13
-1.16348e-18
2.90376e-18
7.63115e-13
1.19198e-18
-3.97732e-18
7.63112e-13
-5.43814e-19
3.83594e-18
7.63117e-13
2.47776e-18
-7.82591e-18
7.63113e-13
-1.02417e-18
5.68455e-18
7.63121e-13
2.92718e-18
-9.41853e-18
7.63114e-13
-1.01184e-18
8.61493e-18
7.6313e-13
2.81584e-18
-1.24058e-17
7.63109e-13
-4.02793e-18
1.83315e-17
7.63126e-13
3.09259e-19
-1.24628e-17
7.63107e-13
-1.58255e-18
1.60608e-17
7.63127e-13
-5.25371e-19
-1.0321e-17
-4.80437e-18
1.72482e-17
7.51724e-13
-5.69125e-13
1.18138e-12
7.07091e-13
-3.11231e-14
5.8758e-14
7.33662e-13
1.84436e-14
-3.49598e-14
7.17579e-13
-1.12077e-14
2.11862e-14
7.27368e-13
6.83545e-15
-1.28991e-14
7.21426e-13
-4.18553e-15
7.8697e-15
7.25014e-13
2.60119e-15
-4.82154e-15
7.22873e-13
-1.59625e-15
2.90834e-15
7.24123e-13
9.5179e-16
-1.70042e-15
7.23418e-13
-5.57326e-16
9.64996e-16
7.23797e-13
3.1014e-16
-5.2332e-16
7.23603e-13
-1.7137e-16
2.72646e-16
7.23694e-13
8.73901e-17
-1.35699e-16
7.23646e-13
-4.16269e-17
6.16519e-17
7.2367e-13
2.03506e-17
-3.12807e-17
7.2366e-13
-1.06809e-17
1.69208e-17
7.23668e-13
5.77259e-18
-1.05636e-17
7.23662e-13
-2.79261e-18
6.50643e-18
7.23667e-13
1.48705e-18
-4.69763e-18
7.23664e-13
-1.46431e-18
3.94391e-18
7.23666e-13
1.14935e-18
-3.21475e-18
7.23665e-13
8.51469e-19
1.05525e-18
7.23666e-13
-1.02089e-18
-1.67836e-19
7.23666e-13
1.59854e-18
-1.22955e-18
7.23664e-13
-2.11788e-18
2.86737e-18
7.23667e-13
2.32704e-18
-4.0454e-18
7.23664e-13
-1.75993e-18
4.31575e-18
7.2367e-13
4.10915e-18
-7.33413e-18
7.23666e-13
-2.49877e-18
6.06077e-18
7.23675e-13
4.43873e-18
-8.80613e-18
7.23667e-13
-2.77672e-18
9.24699e-18
7.23683e-13
4.19927e-18
-1.23949e-17
7.23662e-13
-6.05812e-18
1.74839e-17
7.23678e-13
1.57293e-18
-1.3648e-17
7.2366e-13
-3.0747e-18
1.6375e-17
7.23679e-13
-6.82702e-19
-1.14564e-17
-5.58395e-18
1.68092e-17
6.70017e-13
-7.41584e-13
1.16944e-12
6.19997e-13
-3.81022e-14
5.70038e-14
6.49667e-13
2.26598e-14
-3.38881e-14
6.31692e-13
-1.37774e-14
2.05471e-14
6.42635e-13
8.39711e-15
-1.25047e-14
6.35983e-13
-5.13142e-15
7.61742e-15
6.4002e-13
3.1618e-15
-4.6495e-15
6.37598e-13
-1.9268e-15
2.79695e-15
6.39017e-13
1.14514e-15
-1.63418e-15
6.38212e-13
-6.65992e-16
9.27015e-16
6.38647e-13
3.71036e-16
-5.03025e-16
6.38422e-13
-2.02658e-16
2.61867e-16
6.3853e-13
1.03835e-16
-1.30488e-16
6.38475e-13
-5.05241e-17
6.07812e-17
6.38502e-13
2.49981e-17
-3.09963e-17
6.3849e-13
-1.28713e-17
1.65767e-17
6.38498e-13
7.18969e-18
-1.02838e-17
6.38493e-13
-3.8474e-18
6.61833e-18
6.38497e-13
2.35695e-18
-4.81371e-18
6.38494e-13
-2.00526e-18
4.00748e-18
6.38497e-13
1.5416e-18
-3.2765e-18
6.38496e-13
3.2202e-19
1.42198e-18
6.38496e-13
-6.73085e-19
-6.39269e-19
6.38497e-13
1.44359e-18
-8.17345e-19
6.38495e-13
-2.16018e-18
2.35061e-18
6.38498e-13
2.59035e-18
-3.53013e-18
6.38495e-13
-2.3232e-18
3.83377e-18
6.38502e-13
4.64736e-18
-6.90827e-18
6.38497e-13
-3.33246e-18
5.74503e-18
6.38506e-13
5.40038e-18
-8.87908e-18
6.38498e-13
-4.31767e-18
9.19421e-18
6.38514e-13
6.40947e-18
-1.3242e-17
6.38493e-13
-8.73113e-18
1.83768e-17
6.38509e-13
4.79089e-18
-1.48331e-17
6.38491e-13
-6.27519e-18
1.75976e-17
6.38508e-13
3.25253e-18
-1.40419e-17
-8.31311e-18
1.87411e-17
5.28352e-13
-6.94918e-13
1.09198e-12
4.69264e-13
-2.96815e-14
5.06722e-14
5.04333e-13
1.77409e-14
-3.01519e-14
4.83046e-13
-1.07909e-14
1.83025e-14
4.96009e-13
6.57185e-15
-1.11376e-14
4.88116e-13
-4.0011e-15
6.78161e-15
4.92928e-13
2.4328e-15
-4.13376e-15
4.90025e-13
-1.46761e-15
2.48717e-15
4.91735e-13
8.70387e-16
-1.45722e-15
4.90755e-13
-5.02282e-16
8.29704e-16
4.91293e-13
2.79509e-16
-4.52715e-16
4.91009e-13
-1.50012e-16
2.3682e-16
4.91149e-13
7.59344e-17
-1.18896e-16
4.91079e-13
-3.94515e-17
5.62745e-17
4.91114e-13
1.94464e-17
-2.85803e-17
4.91097e-13
-9.32493e-18
1.52678e-17
4.91108e-13
5.59304e-18
-9.2163e-18
4.91101e-13
-3.37947e-18
5.97077e-18
4.91106e-13
2.38362e-18
-4.29481e-18
4.91103e-13
-1.68105e-18
3.46324e-18
4.91106e-13
1.24754e-18
-2.73891e-18
4.91105e-13
-3.94433e-19
1.29698e-18
4.91105e-13
-4.25118e-20
-5.33003e-19
4.91106e-13
7.76938e-19
-7.50712e-19
4.91104e-13
-1.39052e-18
2.0326e-18
4.91107e-13
1.87183e-18
-3.03548e-18
4.91104e-13
-2.03604e-18
3.41984e-18
4.91111e-13
3.40678e-18
-5.82491e-18
4.91106e-13
-2.87867e-18
5.1412e-18
4.91116e-13
4.56851e-18
-7.7066e-18
4.91107e-13
-4.36633e-18
8.23105e-18
4.91122e-13
7.42736e-18
-1.18124e-17
4.91102e-13
-9.25615e-18
1.59129e-17
4.91117e-13
7.32458e-18
-1.33814e-17
4.91099e-13
-8.08249e-18
1.53734e-17
4.91115e-13
8.04912e-18
-1.31021e-17
-9.40406e-18
1.67593e-17
2.77165e-13
6.94918e-13
2.178e-13
2.96839e-14
2.5328e-13
-1.77399e-14
2.31699e-13
1.07904e-14
2.44841e-13
-6.57011e-15
2.36836e-13
4.00855e-15
2.41718e-13
-2.45933e-15
2.38769e-13
1.49013e-15
2.40513e-13
-8.78161e-16
2.39507e-13
5.05893e-16
2.40065e-13
-2.79413e-16
2.39766e-13
1.49572e-16
2.39918e-13
-7.71583e-17
2.39842e-13
3.63359e-17
2.3988e-13
-1.86137e-17
2.39861e-13
1.0019e-17
2.39872e-13
-5.73619e-18
2.39866e-13
3.40228e-18
2.3987e-13
-2.29843e-18
2.39867e-13
1.92757e-18
2.3987e-13
-1.52968e-18
2.39869e-13
4.62286e-19
2.39869e-13
-6.83099e-20
2.3987e-13
-5.60534e-19
2.39868e-13
1.23372e-18
2.39871e-13
-1.70809e-18
2.39867e-13
1.81689e-18
2.39874e-13
-3.24289e-18
2.39868e-13
2.77552e-18
2.39877e-13
-4.01356e-18
2.39869e-13
4.03489e-18
2.39882e-13
-5.27089e-18
2.39865e-13
7.20548e-18
2.39878e-13
-5.45408e-18
2.39863e-13
6.50994e-18
2.39877e-13
-4.49525e-18
7.45681e-18
5.28352e-13
1.09198e-12
7.41585e-13
4.69264e-13
5.06718e-14
3.81026e-14
5.04333e-13
-3.01516e-14
-2.26581e-14
4.83046e-13
1.83023e-14
1.37763e-14
4.96009e-13
-1.11378e-14
-8.39486e-15
4.88116e-13
6.78041e-15
5.1423e-15
4.92928e-13
-4.13181e-15
-3.18299e-15
4.90025e-13
2.4861e-15
1.94414e-15
4.91735e-13
-1.4553e-15
-1.1501e-15
4.90756e-13
8.27747e-16
6.64704e-16
4.91292e-13
-4.511e-16
-3.70198e-16
4.91009e-13
2.35938e-16
2.00507e-16
4.91149e-13
-1.17954e-16
-1.04607e-16
4.91079e-13
5.60929e-17
4.70967e-17
4.91114e-13
-2.8483e-17
-2.43354e-17
4.91097e-13
1.48374e-17
1.29677e-17
4.91108e-13
-9.13327e-18
-7.29013e-18
4.91101e-13
5.93395e-18
3.80963e-18
4.91106e-13
-4.27902e-18
-2.30446e-18
4.91103e-13
3.53279e-18
2.15424e-18
4.91106e-13
-2.85839e-18
-1.66099e-18
4.91105e-13
1.26168e-18
-2.48081e-19
4.91105e-13
-6.19424e-19
6.96072e-19
4.91106e-13
-7.22766e-19
-1.29434e-18
4.91104e-13
2.0223e-18
2.13162e-18
4.91107e-13
-3.01221e-18
-2.58754e-18
4.91104e-13
3.26027e-18
2.51639e-18
4.91111e-13
-6.09492e-18
-4.38829e-18
4.91106e-13
5.0221e-18
3.5223e-18
4.91116e-13
-8.08229e-18
-4.47487e-18
4.91107e-13
8.048e-18
4.37141e-18
4.91123e-13
-1.22799e-17
-3.81919e-18
4.91102e-13
1.67742e-17
6.29028e-18
4.91117e-13
-1.32905e-17
-3.26317e-18
4.911e-13
1.56401e-17
4.69876e-18
4.91115e-13
-1.34296e-17
1.91013e-19
1.74571e-17
3.89485e-18
1.14779e-12
1.35159e-12
1.35159e-12
1.10439e-12
7.23735e-14
7.23738e-14
1.12961e-12
-4.27601e-14
-4.27603e-14
1.11438e-12
2.59193e-14
2.59196e-14
1.12369e-12
-1.57943e-14
-1.57946e-14
1.11797e-12
9.67181e-15
9.67097e-15
1.12154e-12
-5.98646e-15
-5.98623e-15
1.11931e-12
3.66359e-15
3.66218e-15
1.12069e-12
-2.1713e-15
-2.17149e-15
1.11985e-12
1.25965e-15
1.26093e-15
1.12034e-12
-7.05305e-16
-7.06009e-16
1.12005e-12
3.84323e-16
3.8507e-16
1.12021e-12
-2.02472e-16
-2.02785e-16
1.12012e-12
9.16889e-17
9.25154e-17
1.12016e-12
-4.77935e-17
-4.82294e-17
1.12015e-12
2.51266e-17
2.5338e-17
1.12016e-12
-1.37433e-17
-1.37548e-17
1.12015e-12
7.25425e-18
7.25427e-18
1.12016e-12
-4.13179e-18
-4.10497e-18
1.12016e-12
4.09465e-18
4.06855e-18
1.12016e-12
-3.12707e-18
-3.0971e-18
1.12016e-12
-6.05655e-19
-6.35366e-19
1.12016e-12
1.16457e-18
1.18438e-18
1.12016e-12
-2.41907e-18
-2.45283e-18
1.12016e-12
3.84266e-18
3.8487e-18
1.12016e-12
-4.49244e-18
-4.49929e-18
1.12016e-12
3.96439e-18
3.94619e-18
1.12016e-12
-8.44953e-18
-8.44918e-18
1.12016e-12
6.02191e-18
6.00515e-18
1.12017e-12
-8.85702e-18
-8.98582e-18
1.12017e-12
7.1843e-18
7.2784e-18
1.12017e-12
-6.92806e-18
-7.10732e-18
1.12017e-12
1.22177e-17
1.23196e-17
1.12016e-12
-4.37863e-18
-4.69528e-18
1.12017e-12
7.70739e-18
8.02894e-18
1.12016e-12
1.21992e-18
1.05241e-18
7.62887e-18
7.69944e-18
1.53275e-12
1.11539e-12
1.53989e-12
1.51409e-12
6.27198e-14
8.53299e-14
1.52459e-12
-3.68547e-14
-5.02966e-14
1.51833e-12
2.23018e-14
3.04245e-14
1.52217e-12
-1.35933e-14
-1.85429e-14
1.51981e-12
8.34248e-15
1.13651e-14
1.52128e-12
-5.19478e-15
-7.05332e-15
1.52035e-12
3.19473e-15
4.31927e-15
1.52094e-12
-1.89243e-15
-2.55752e-15
1.52057e-12
1.09728e-15
1.48216e-15
1.52079e-12
-6.14902e-16
-8.27357e-16
1.52066e-12
3.35785e-16
4.50349e-16
1.52073e-12
-1.77913e-16
-2.36612e-16
1.52069e-12
7.65961e-17
1.05416e-16
1.52071e-12
-4.06396e-17
-5.50654e-17
1.5207e-12
2.1164e-17
2.9376e-17
1.52071e-12
-1.17816e-17
-1.61116e-17
1.52071e-12
5.77129e-18
8.25903e-18
1.52071e-12
-3.02364e-18
-4.6436e-18
1.52071e-12
3.55556e-18
4.78799e-18
1.52071e-12
-2.80581e-18
-3.71879e-18
1.52071e-12
-1.13364e-18
-1.00014e-18
1.52071e-12
1.45567e-18
1.65765e-18
1.52071e-12
-2.35416e-18
-3.04083e-18
1.52071e-12
3.63527e-18
4.7831e-18
1.52071e-12
-4.01407e-18
-5.57395e-18
1.52071e-12
3.26232e-18
4.8569e-18
1.52071e-12
-7.6066e-18
-1.01625e-17
1.52071e-12
4.99653e-18
7.15997e-18
1.52072e-12
-7.10467e-18
-1.02069e-17
1.52072e-12
5.26491e-18
8.43747e-18
1.52072e-12
-2.93475e-18
-7.01767e-18
1.52072e-12
8.05876e-18
1.33198e-17
1.52071e-12
2.11962e-19
-4.22021e-18
1.52072e-12
3.27809e-18
8.38493e-18
1.52071e-12
7.23122e-18
4.15127e-18
1.48154e-18
6.95433e-18
1.76209e-12
6.15389e-13
1.5863e-12
1.75856e-12
3.53579e-14
8.96606e-14
1.76031e-12
-2.0712e-14
-5.2858e-14
1.75935e-12
1.25195e-14
3.19318e-14
1.75996e-12
-7.63145e-15
-1.94659e-14
1.75959e-12
4.69739e-15
1.19396e-14
1.7598e-12
-2.93819e-15
-7.42845e-15
1.75965e-12
1.81206e-15
4.55714e-15
1.75977e-12
-1.06866e-15
-2.69858e-15
1.75968e-12
6.13972e-16
1.56461e-15
1.75975e-12
-3.43752e-16
-8.72329e-16
1.7597e-12
1.85827e-16
4.75269e-16
1.75973e-12
-9.91909e-17
-2.4931e-16
1.7597e-12
3.90715e-17
1.09497e-16
1.75971e-12
-2.16181e-17
-5.72432e-17
1.75971e-12
1.09846e-17
3.06088e-17
1.75972e-12
-6.59017e-18
-1.67985e-17
1.75972e-12
3.03742e-18
8.38007e-18
1.75972e-12
-1.54298e-18
-4.54527e-18
1.75972e-12
2.13263e-18
4.96174e-18
1.75972e-12
-1.71886e-18
-3.90926e-18
1.75972e-12
-7.42996e-19
-1.50958e-18
1.75972e-12
9.55128e-19
2.06635e-18
1.75972e-12
-1.30578e-18
-3.51598e-18
1.75972e-12
2.19295e-18
5.33939e-18
1.75972e-12
-2.40193e-18
-6.07172e-18
1.75972e-12
2.03e-18
4.97254e-18
1.75972e-12
-4.35987e-18
-1.116e-17
1.75972e-12
2.90549e-18
7.31485e-18
1.75972e-12
-3.30295e-18
-1.08871e-17
1.75973e-12
2.76229e-18
8.2429e-18
1.75973e-12
5.59196e-19
-6.43286e-18
1.75973e-12
2.88476e-18
1.35292e-17
1.75972e-12
1.93773e-18
-2.45427e-18
1.75972e-12
3.01475e-19
7.43446e-18
1.75973e-12
7.47665e-18
7.3686e-18
-3.55908e-18
5.90652e-18
1.86952e-12
3.33456e-18
1.59336e-12
1.87319e-12
-2.11048e-18
9.08006e-14
1.87085e-12
3.62734e-18
-5.35714e-14
1.87235e-12
-2.64593e-18
3.23407e-14
1.87146e-12
3.98393e-18
-1.97159e-14
1.87202e-12
1.66473e-17
1.20944e-14
1.87163e-12
-2.07541e-17
-7.53344e-15
1.87186e-12
1.62455e-17
4.62592e-15
1.87176e-12
-3.84561e-19
-2.73966e-15
1.8718e-12
-1.08304e-17
1.58961e-15
1.87179e-12
5.46889e-18
-8.85634e-16
1.87179e-12
-6.7577e-18
4.8301e-16
1.87179e-12
1.51098e-18
-2.5313e-16
1.87177e-12
-6.29757e-18
1.10625e-16
1.87178e-12
1.53353e-18
-5.78813e-17
1.87178e-12
-1.3529e-18
3.09318e-17
1.87178e-12
2.51279e-20
-1.69433e-17
1.87178e-12
-1.43351e-19
8.36877e-18
1.87178e-12
1.01718e-19
-4.42847e-18
1.87178e-12
3.08713e-19
5.033e-18
1.87178e-12
-2.61979e-19
-4.01854e-18
1.87178e-12
1.05282e-19
-1.75183e-18
1.87178e-12
-4.81736e-20
2.17514e-18
1.87178e-12
2.64807e-19
-3.68977e-18
1.87178e-12
2.99894e-20
5.49285e-18
1.87178e-12
-8.32409e-20
-6.14591e-18
1.87178e-12
3.12067e-19
4.74146e-18
1.87179e-12
1.56492e-20
-1.16323e-17
1.87179e-12
2.31858e-19
7.15478e-18
1.87179e-12
1.11649e-18
-1.13687e-17
1.87179e-12
-6.44354e-22
7.8945e-18
1.8718e-12
3.37149e-18
-6.34934e-18
1.87179e-12
-2.27816e-18
1.39998e-17
1.87179e-12
2.05049e-18
-1.45629e-18
1.87179e-12
-1.66472e-18
7.06162e-18
1.8718e-12
4.24455e-18
8.71323e-18
-7.10969e-18
6.07899e-18
1.86952e-12
-6.15381e-13
1.59336e-12
1.87319e-12
-3.53614e-14
9.08009e-14
1.87085e-12
2.07185e-14
-5.35716e-14
1.87235e-12
-1.25241e-14
3.23408e-14
1.87146e-12
7.63881e-15
-1.97159e-14
1.87202e-12
-4.6647e-15
1.20933e-14
1.87163e-12
2.89566e-15
-7.53191e-15
1.87186e-12
-1.77842e-15
4.62458e-15
1.87176e-12
1.0662e-15
-2.73968e-15
1.8718e-12
-6.33163e-16
1.59041e-15
1.87179e-12
3.53327e-16
-8.86052e-16
1.87179e-12
-1.98012e-16
4.83323e-16
1.87179e-12
1.01512e-16
-2.53242e-16
1.87177e-12
-5.10791e-17
1.10926e-16
1.87178e-12
2.457e-17
-5.79271e-17
1.87178e-12
-1.33037e-17
3.10545e-17
1.87178e-12
6.62741e-18
-1.69765e-17
1.87178e-12
-3.31545e-18
8.3983e-18
1.87178e-12
1.77326e-18
-4.45722e-18
1.87178e-12
-1.56767e-18
5.01048e-18
1.87178e-12
1.25909e-18
-3.98397e-18
1.87178e-12
9.25421e-19
-1.71414e-18
1.87178e-12
-1.00202e-18
2.18179e-18
1.87178e-12
1.79047e-18
-3.69207e-18
1.87178e-12
-2.12359e-18
5.48547e-18
1.87178e-12
2.23421e-18
-6.13968e-18
1.87178e-12
-1.39678e-18
4.76759e-18
1.87179e-12
4.46279e-18
-1.15465e-17
1.87179e-12
-2.41956e-18
7.16691e-18
1.87179e-12
5.53928e-18
-1.13121e-17
1.87179e-12
-2.72826e-18
7.93723e-18
1.8718e-12
6.11933e-18
-6.47631e-18
1.87179e-12
-7.62737e-18
1.3939e-17
1.87179e-12
2.11342e-18
-1.64167e-18
1.87179e-12
-3.72818e-18
7.11806e-18
1.8718e-12
9.73014e-19
8.43335e-18
-1.01607e-17
6.40195e-18
1.76209e-12
-1.11538e-12
1.5863e-12
1.75855e-12
-6.27214e-14
8.96614e-14
1.76031e-12
3.68592e-14
-5.28588e-14
1.75935e-12
-2.23049e-14
3.19322e-14
1.75996e-12
1.3599e-14
-1.9466e-14
1.75959e-12
-8.31275e-15
1.1936e-14
1.7598e-12
5.15136e-15
-7.42366e-15
1.75965e-12
-3.15932e-15
4.55313e-15
1.75977e-12
1.88601e-15
-2.69849e-15
1.75968e-12
-1.10979e-15
1.56683e-15
1.75975e-12
6.20849e-16
-8.73486e-16
1.7597e-12
-3.44291e-16
4.7622e-16
1.75973e-12
1.78431e-16
-2.49606e-16
1.7597e-12
-8.66647e-17
1.10437e-16
1.75971e-12
4.30737e-17
-5.74446e-17
1.75971e-12
-2.25043e-17
3.09155e-17
1.75972e-12
1.18249e-17
-1.68654e-17
1.75972e-12
-6.02914e-18
8.46262e-18
1.75972e-12
3.33416e-18
-4.61365e-18
1.75972e-12
-3.13048e-18
4.90835e-18
1.75972e-12
2.50386e-18
-3.82933e-18
1.75972e-12
1.21672e-18
-1.42415e-18
1.75972e-12
-1.39593e-18
2.06426e-18
1.75972e-12
2.70188e-18
-3.52869e-18
1.75972e-12
-3.54017e-18
5.31255e-18
1.75972e-12
3.85457e-18
-6.03925e-18
1.75972e-12
-2.68379e-18
4.97325e-18
1.75972e-12
7.78023e-18
-1.09979e-17
1.75972e-12
-4.49381e-18
7.29434e-18
1.75972e-12
9.09455e-18
-1.08743e-17
1.75973e-12
-5.14943e-18
8.3016e-18
1.75973e-12
9.09834e-18
-6.90988e-18
1.75973e-12
-1.28188e-17
1.36251e-17
1.75972e-12
3.60724e-18
-2.9382e-18
1.75972e-12
-6.72732e-18
7.69049e-18
1.75973e-12
8.18883e-19
6.526e-18
-1.34643e-17
7.00095e-18
1.53275e-12
-1.35158e-12
1.53989e-12
1.51408e-12
-7.23728e-14
8.53309e-14
1.52459e-12
4.27618e-14
-5.02977e-14
1.51833e-12
-2.592e-14
3.0425e-14
1.52217e-12
1.57972e-14
-1.85433e-14
1.51982e-12
-9.64671e-15
1.13598e-14
1.52128e-12
5.9411e-15
-7.04583e-15
1.52035e-12
-3.62463e-15
4.3131e-15
1.52094e-12
2.15843e-15
-2.55726e-15
1.52057e-12
-1.26138e-15
1.48523e-15
1.52079e-12
7.05474e-16
-8.29043e-16
1.52066e-12
-3.86911e-16
4.51932e-16
1.52073e-12
2.00084e-16
-2.37037e-16
1.52069e-12
-9.8932e-17
1.06833e-16
1.52071e-12
4.94712e-17
-5.53502e-17
1.5207e-12
-2.49249e-17
2.97743e-17
1.52071e-12
1.37936e-17
-1.61794e-17
1.52071e-12
-7.42474e-18
8.37225e-18
1.52071e-12
4.57784e-18
-4.71919e-18
1.52071e-12
-3.82941e-18
4.72152e-18
1.52071e-12
3.00288e-18
-3.62271e-18
1.52071e-12
5.18021e-19
-9.13953e-19
1.52071e-12
-1.026e-18
1.63577e-18
1.52071e-12
2.5829e-18
-3.06485e-18
1.52071e-12
-3.77459e-18
4.73095e-18
1.52071e-12
4.42194e-18
-5.50785e-18
1.52071e-12
-3.73202e-18
4.76508e-18
1.52071e-12
8.63588e-18
-1.0011e-17
1.52071e-12
-5.75979e-18
7.05399e-18
1.52072e-12
1.03714e-17
-1.03287e-17
1.52072e-12
-7.36079e-18
8.42375e-18
1.52072e-12
1.238e-17
-7.79437e-18
1.52072e-12
-1.67253e-17
1.37367e-17
1.52071e-12
8.26007e-18
-4.84078e-18
1.52072e-12
-1.12109e-17
8.85136e-18
1.52071e-12
6.45519e-18
2.92099e-18
-1.6472e-17
8.7826e-18
1.14779e-12
-1.09198e-12
1.35158e-12
1.10439e-12
-5.067e-14
7.23746e-14
1.12961e-12
3.01512e-14
-4.27614e-14
1.11438e-12
-1.83014e-14
2.592e-14
1.12369e-12
1.11379e-14
-1.57948e-14
1.11797e-12
-6.76758e-15
9.66666e-15
1.12154e-12
4.1045e-15
-5.98021e-15
1.11931e-12
-2.46194e-15
3.65673e-15
1.12069e-12
1.44399e-15
-2.17167e-15
1.11984e-12
-8.22582e-16
1.26394e-15
1.12034e-12
4.47702e-16
-7.077e-16
1.12005e-12
-2.34437e-16
3.86848e-16
1.12021e-12
1.14882e-16
-2.0323e-16
1.12012e-12
-5.88496e-17
9.39587e-17
1.12016e-12
2.9118e-17
-4.84725e-17
1.12015e-12
-1.37474e-17
2.57893e-17
1.12016e-12
9.11912e-18
-1.3861e-17
1.12015e-12
-5.95328e-18
7.35411e-18
1.12016e-12
4.56334e-18
-4.17738e-18
1.12016e-12
-3.51753e-18
3.99762e-18
1.12016e-12
2.97262e-18
-2.99778e-18
1.12016e-12
-1.34517e-18
-5.59258e-19
1.12016e-12
7.92046e-19
1.19385e-18
1.12016e-12
6.9772e-19
-2.46205e-18
1.12016e-12
-1.95684e-18
3.78532e-18
1.12016e-12
2.96258e-18
-4.44212e-18
1.12016e-12
-3.12298e-18
3.90258e-18
1.12016e-12
6.37547e-18
-8.19823e-18
1.12016e-12
-4.87057e-18
5.91926e-18
1.12017e-12
8.96774e-18
-8.89856e-18
1.12017e-12
-8.13093e-18
7.25085e-18
1.12017e-12
1.52042e-17
-7.65276e-18
1.12017e-12
-1.97229e-17
1.23828e-17
1.12016e-12
1.53731e-17
-5.25486e-18
1.12017e-12
-1.78521e-17
8.33967e-18
1.12016e-12
1.76216e-17
3.16046e-20
-2.12535e-17
9.24416e-18
5.28352e-13
7.41585e-13
4.69264e-13
3.81036e-14
5.04333e-13
-2.26584e-14
4.83046e-13
1.37764e-14
4.96009e-13
-8.39516e-15
4.88116e-13
5.13817e-15
4.92927e-13
-3.17884e-15
4.90025e-13
1.94137e-15
4.91735e-13
-1.14976e-15
4.90755e-13
6.66931e-16
4.91293e-13
-3.70739e-16
4.91009e-13
2.0054e-16
4.91149e-13
-1.04595e-16
4.91079e-13
4.74905e-17
4.91114e-13
-2.43706e-17
4.91097e-13
1.32776e-17
4.91108e-13
-7.37235e-18
4.91101e-13
3.95812e-18
4.91106e-13
-2.44399e-18
4.91103e-13
2.15918e-18
4.91106e-13
-1.64465e-18
4.91105e-13
-8.49644e-20
4.91105e-13
6.08264e-19
4.91106e-13
-1.27447e-18
4.91104e-13
2.07919e-18
4.91107e-13
-2.51612e-18
4.91104e-13
2.43876e-18
4.91111e-13
-4.27985e-18
4.91106e-13
3.42121e-18
4.91115e-13
-4.54879e-18
4.91107e-13
4.29201e-18
4.91122e-13
-4.36937e-18
4.91102e-13
6.54651e-18
4.91117e-13
-3.60756e-18
4.91099e-13
4.89078e-18
4.91115e-13
-6.40432e-19
5.37885e-18
6.70017e-13
1.16944e-12
5.69126e-13
6.19997e-13
5.70036e-14
3.11225e-14
6.49667e-13
-3.38877e-14
-1.8441e-14
6.31691e-13
2.05466e-14
1.12062e-14
6.42635e-13
-1.2504e-14
-6.83302e-15
6.35982e-13
7.62021e-15
4.19736e-15
6.40021e-13
-4.65445e-15
-2.61978e-15
6.37598e-13
2.80085e-15
1.61163e-15
6.39017e-13
-1.63489e-15
-9.54231e-16
6.38212e-13
9.25697e-16
5.52704e-16
6.38647e-13
-5.01989e-16
-3.07916e-16
6.38422e-13
2.61198e-16
1.67261e-16
6.3853e-13
-1.30081e-16
-8.75777e-17
6.38475e-13
5.9784e-17
3.73065e-17
6.38502e-13
-3.04395e-17
-1.9593e-17
6.3849e-13
1.64288e-17
1.02866e-17
6.38498e-13
-1.03179e-17
-5.79813e-18
6.38493e-13
6.55263e-18
2.76721e-18
6.38497e-13
-4.79801e-18
-1.47207e-18
6.38494e-13
4.03939e-18
1.66074e-18
6.38497e-13
-3.3224e-18
-1.31468e-18
6.38496e-13
1.42311e-18
-7.5181e-19
6.38496e-13
-5.97201e-19
9.69772e-19
6.38497e-13
-7.571e-19
-1.44866e-18
6.38495e-13
2.3569e-18
2.11186e-18
6.38498e-13
-3.56468e-18
-2.3364e-18
6.38495e-13
3.99925e-18
1.89638e-18
6.38502e-13
-6.77213e-18
-4.09262e-18
6.38497e-13
5.89975e-18
2.61191e-18
6.38506e-13
-8.49273e-18
-3.75003e-18
6.38499e-13
9.3075e-18
2.73167e-18
6.38514e-13
-1.2688e-17
-1.60216e-18
6.38494e-13
1.76172e-17
4.21718e-18
6.38509e-13
-1.4578e-17
7.55954e-20
6.38491e-13
1.71034e-17
1.75387e-18
6.38508e-13
-1.33892e-17
4.14736e-18
1.79543e-17
5.15833e-19
1.53275e-12
1.53989e-12
1.11539e-12
1.51409e-12
8.53295e-14
6.27202e-14
1.52459e-12
-5.02961e-14
-3.68552e-14
1.51833e-12
3.0424e-14
2.23023e-14
1.52217e-12
-1.85424e-14
-1.35939e-14
1.51981e-12
1.13663e-14
8.34139e-15
1.52128e-12
-7.05347e-15
-5.19521e-15
1.52035e-12
4.32117e-15
3.19325e-15
1.52094e-12
-2.55707e-15
-1.89315e-15
1.52057e-12
1.48011e-15
1.09965e-15
1.52079e-12
-8.26258e-16
-6.16195e-16
1.52066e-12
4.49206e-16
3.3712e-16
1.52073e-12
-2.36168e-16
-1.7853e-16
1.52069e-12
1.04246e-16
7.77435e-17
1.52071e-12
-5.44605e-17
-4.11733e-17
1.5207e-12
2.90648e-17
2.15607e-17
1.52071e-12
-1.60886e-17
-1.18003e-17
1.52071e-12
8.25385e-18
5.77337e-18
1.52071e-12
-4.68788e-18
-2.97226e-18
1.52071e-12
4.82455e-18
3.5124e-18
1.52071e-12
-3.76358e-18
-2.75405e-18
1.52071e-12
-9.63688e-19
-1.18604e-18
1.52071e-12
1.63552e-18
1.49134e-18
1.52071e-12
-2.99943e-18
-2.41096e-18
1.52071e-12
4.78061e-18
3.64439e-18
1.52071e-12
-5.56977e-18
-4.02416e-18
1.52071e-12
4.8992e-18
3.22542e-18
1.52071e-12
-1.01768e-17
-7.60065e-18
1.52071e-12
7.20269e-18
4.96174e-18
1.52072e-12
-1.007e-17
-7.29431e-18
1.52072e-12
8.35379e-18
5.3891e-18
1.52072e-12
-6.79048e-18
-3.15972e-18
1.52072e-12
1.32218e-17
8.15266e-18
1.52071e-12
-3.81215e-18
-2.21694e-19
1.52072e-12
7.96873e-18
3.72124e-18
1.52071e-12
4.35686e-18
7.06916e-18
6.83277e-18
1.71683e-18
2.09649e-12
1.32514e-12
1.32514e-12
2.11429e-12
7.64318e-14
7.64325e-14
2.10321e-12
-4.47542e-14
-4.4755e-14
2.11005e-12
2.70061e-14
2.70069e-14
2.1059e-12
-1.64651e-14
-1.64659e-14
2.10845e-12
1.01167e-14
1.01151e-14
2.10684e-12
-6.31755e-15
-6.31824e-15
2.10782e-12
3.89096e-15
3.88887e-15
2.10726e-12
-2.30194e-15
-2.3031e-15
2.10758e-12
1.33216e-15
1.33569e-15
2.1074e-12
-7.44482e-16
-7.4636e-16
2.1075e-12
4.05667e-16
4.07582e-16
2.10744e-12
-2.14475e-16
-2.15284e-16
2.10746e-12
8.98204e-17
9.14189e-17
2.10745e-12
-4.78136e-17
-4.85503e-17
2.10746e-12
2.5099e-17
2.56474e-17
2.10746e-12
-1.41466e-17
-1.41853e-17
2.10746e-12
6.68749e-18
6.69717e-18
2.10746e-12
-3.43646e-18