/*--------------------------------*- C++ -*----------------------------------*\
  =========                 |
  \\      /  F ield         | OpenFOAM: The Open Source CFD Toolbox
   \\    /   O peration     | Website:  https://openfoam.org
    \\  /    A nd           | Version:  13
     \\/     M anipulation  |
\*---------------------------------------------------------------------------*/
FoamFile
{
    format      ascii;
    class       volVectorField;
    location    "30";
    object      U;
}
// * * * * * * * * * * * * * * * * * * * * * * * * * * * * * * * * * * * * * //

dimensions      [0 1 -1 0 0 0 0];

internalField   nonuniform List<vector> 
3700
(
(0.00195414 7.39597e-05 7.39597e-05)
(0.00268757 3.54157e-06 3.54156e-06)
(0.00222255 -2.14218e-06 -2.1422e-06)
(0.002506 1.30354e-06 1.30356e-06)
(0.00233322 -7.93471e-07 -7.93492e-07)
(0.00243858 4.83331e-07 4.83348e-07)
(0.00237436 -2.94881e-07 -2.94848e-07)
(0.00241361 1.78432e-07 1.78394e-07)
(0.00238969 -1.05717e-07 -1.05727e-07)
(0.00240407 6.12468e-08 6.12597e-08)
(0.00239557 -3.43132e-08 -3.43442e-08)
(0.00240043 1.85948e-08 1.86272e-08)
(0.00239775 -9.73571e-09 -9.74698e-09)
(0.00239914 4.81482e-09 4.83907e-09)
(0.00239844 -2.46099e-09 -2.47032e-09)
(0.00239879 1.27727e-09 1.27756e-09)
(0.00239863 -7.01554e-10 -6.99879e-10)
(0.00239871 4.24597e-10 4.23292e-10)
(0.00239867 -2.77517e-10 -2.75652e-10)
(0.00239869 2.22234e-10 2.19435e-10)
(0.00239868 -1.64561e-10 -1.61405e-10)
(0.0023987 6.47676e-11 6.14344e-11)
(0.00239868 -1.83288e-11 -1.56254e-11)
(0.0023987 -5.71683e-11 -5.9933e-11)
(0.00239868 1.26018e-10 1.27734e-10)
(0.00239871 -1.77381e-10 -1.79215e-10)
(0.00239867 2.06049e-10 2.0743e-10)
(0.00239873 -3.54967e-10 -3.55641e-10)
(0.00239869 3.38871e-10 3.39709e-10)
(0.00239876 -4.90367e-10 -4.92463e-10)
(0.00239869 5.10365e-10 5.13031e-10)
(0.0023988 -6.89135e-10 -6.91859e-10)
(0.00239871 8.89478e-10 8.92246e-10)
(0.00239874 -7.36361e-10 -7.40428e-10)
(0.00239869 8.20216e-10 8.23568e-10)
(0.00239871 -7.29433e-10 -7.33185e-10)
(0.00239868 9.41016e-10 9.34972e-10)
(0.00398912 0.000144225 0.000117106)
(0.00549732 6.69536e-06 6.37319e-06)
(0.00455236 -3.98205e-06 -3.84172e-06)
(0.00512972 2.42114e-06 2.33233e-06)
(0.00477758 -1.47456e-06 -1.41533e-06)
(0.00499246 9.00829e-07 8.54828e-07)
(0.00486148 -5.53903e-07 -5.15631e-07)
(0.00494124 3.36479e-07 3.09096e-07)
(0.00489298 -1.98517e-07 -1.80519e-07)
(0.00492176 1.1429e-07 1.03774e-07)
(0.0049049 -6.3315e-08 -5.73604e-08)
(0.00491447 3.39828e-08 3.08282e-08)
(0.00490922 -1.75422e-08 -1.61738e-08)
(0.00491194 8.1651e-09 8.21574e-09)
(0.00491056 -4.18856e-09 -4.4279e-09)
(0.00491125 2.198e-09 2.24104e-09)
(0.00491094 -1.27438e-09 -1.20405e-09)
(0.00491109 7.22138e-10 8.79037e-10)
(0.00491102 -4.76051e-10 -5.84447e-10)
(0.00491105 4.12566e-10 5.83382e-10)
(0.00491104 -3.26039e-10 -5.15739e-10)
(0.00491106 4.72961e-11 3.11433e-10)
(0.00491104 3.51646e-11 -3.78598e-10)
(0.00491108 -1.66116e-10 1.43825e-10)
(0.00491102 3.18381e-10 -4.65263e-11)
(0.00491109 -4.14542e-10 -2.31885e-11)
(0.00491101 4.24413e-10 -2.78219e-11)
(0.00491113 -7.65548e-10 -7.66057e-10)
(0.00491102 6.26233e-10 4.61194e-10)
(0.00491119 -8.83138e-10 -1.44339e-09)
(0.00491102 8.63363e-10 1.01254e-09)
(0.00491125 -1.05296e-09 -2.02226e-09)
(0.00491104 1.52038e-09 2.93157e-09)
(0.00491116 -1.02034e-09 -1.9564e-09)
(0.00491103 1.27704e-09 2.58638e-09)
(0.00491111 -7.0642e-10 -2.55711e-09)
(0.00491104 1.34311e-09 3.44716e-09)
(0.00517687 0.000130332 0.000116936)
(0.00714366 6.88285e-06 6.96632e-06)
(0.00592035 -4.08197e-06 -4.2023e-06)
(0.00666834 2.48079e-06 2.55105e-06)
(0.00621191 -1.51233e-06 -1.5479e-06)
(0.00649062 9.28052e-07 9.35736e-07)
(0.00632067 -5.76989e-07 -5.64528e-07)
(0.00642389 3.53774e-07 3.3777e-07)
(0.00636178 -2.09215e-07 -1.96967e-07)
(0.00639858 1.20851e-07 1.12796e-07)
(0.00637722 -6.72297e-08 -6.233e-08)
(0.00638924 3.63603e-08 3.33536e-08)
(0.00638271 -1.89996e-08 -1.76198e-08)
(0.00638606 8.22316e-09 8.78748e-09)
(0.00638436 -4.28073e-09 -4.73725e-09)
(0.0063852 2.2839e-09 2.53359e-09)
(0.00638483 -1.30736e-09 -1.37982e-09)
(0.00638501 6.50924e-10 9.80599e-10)
(0.00638493 -3.83508e-10 -6.79416e-10)
(0.00638497 3.81565e-10 6.45514e-10)
(0.00638495 -2.98518e-10 -5.61046e-10)
(0.00638497 -9.34167e-11 3.99809e-10)
(0.00638495 1.7416e-10 -4.10541e-10)
(0.00638499 -2.72417e-10 2.02172e-10)
(0.00638492 4.29844e-10 -7.38448e-11)
(0.00638502 -5.01115e-10 -2.80477e-11)
(0.0063849 4.65183e-10 7.24922e-11)
(0.00638507 -8.29283e-10 -6.84021e-10)
(0.00638489 6.22822e-10 5.83182e-10)
(0.00638514 -7.59846e-10 -1.30699e-09)
(0.00638488 6.95616e-10 1.20728e-09)
(0.00638521 -4.73502e-10 -1.96896e-09)
(0.00638491 9.50068e-10 2.74749e-09)
(0.00638511 -2.63622e-10 -2.23734e-09)
(0.00638491 5.57182e-10 2.72513e-09)
(0.00638505 5.09818e-10 -2.72256e-09)
(0.00638496 3.44065e-10 3.41703e-09)
(0.00586077 8.42103e-05 0.000113469)
(0.0080943 4.70625e-06 7.02879e-06)
(0.00671142 -2.78339e-06 -4.24606e-06)
(0.00755712 1.69035e-06 2.57856e-06)
(0.0070409 -1.0308e-06 -1.56554e-06)
(0.00735627 6.33977e-07 9.47945e-07)
(0.0071639 -3.96977e-07 -5.73082e-07)
(0.00728052 2.45149e-07 3.4316e-07)
(0.00721064 -1.44872e-07 -2.00271e-07)
(0.00725184 8.37267e-08 1.14605e-07)
(0.00722808 -4.66007e-08 -6.33202e-08)
(0.00724137 2.52065e-08 3.38274e-08)
(0.00723421 -1.32696e-08 -1.7845e-08)
(0.00723785 5.39134e-09 8.8202e-09)
(0.00723601 -2.90181e-09 -4.73123e-09)
(0.00723692 1.48159e-09 2.57997e-09)
(0.00723652 -8.61972e-10 -1.41503e-09)
(0.0072367 3.99451e-10 9.8582e-10)
(0.00723662 -2.06339e-10 -6.87636e-10)
(0.00723666 2.60668e-10 6.30083e-10)
(0.00723665 -2.15405e-10 -5.38846e-10)
(0.00723666 -1.36047e-10 3.86396e-10)
(0.00723664 1.55391e-10 -3.6982e-10)
(0.00723669 -2.31315e-10 1.73847e-10)
(0.00723661 3.34826e-10 -3.6482e-11)
(0.00723672 -3.56282e-10 -8.15441e-11)
(0.00723658 2.61438e-10 1.37466e-10)
(0.00723677 -6.70437e-10 -6.67303e-10)
(0.00723656 3.70247e-10 5.95465e-10)
(0.00723685 -5.87725e-10 -1.19699e-09)
(0.00723654 3.37703e-10 1.16803e-09)
(0.00723693 -1.37122e-10 -1.8201e-09)
(0.00723657 6.29745e-10 2.53569e-09)
(0.00723684 2.39751e-10 -2.13873e-09)
(0.00723659 1.15777e-10 2.57474e-09)
(0.00723676 8.98173e-10 -2.50745e-09)
(0.00723667 -1.08282e-10 3.1523e-09)
(0.00617687 2.88834e-05 0.000111713)
(0.00853443 1.64236e-06 7.02445e-06)
(0.00707799 -9.69584e-07 -4.24739e-06)
(0.00796869 5.88413e-07 2.57947e-06)
(0.0074249 -3.58665e-07 -1.56636e-06)
(0.00775719 2.21519e-07 9.48702e-07)
(0.00755447 -1.3941e-07 -5.74206e-07)
(0.00767725 8.65409e-08 3.44226e-07)
(0.00760384 -5.05653e-08 -2.00987e-07)
(0.007647 2.86873e-08 1.15153e-07)
(0.00762219 -1.59813e-08 -6.3607e-08)
(0.00763603 8.34155e-09 3.40514e-08)
(0.00762861 -4.57475e-09 -1.79197e-08)
(0.00763236 1.49738e-09 8.87466e-09)
(0.00763046 -9.38993e-10 -4.76606e-09)
(0.0076314 4.32586e-10 2.57395e-09)
(0.00763099 -2.92782e-10 -1.40089e-09)
(0.00763118 1.31026e-10 9.79453e-10)
(0.0076311 -7.24911e-11 -6.70119e-10)
(0.00763113 1.07002e-10 6.24506e-10)
(0.00763112 -9.22188e-11 -5.384e-10)
(0.00763113 -4.20658e-11 3.53828e-10)
(0.00763111 4.95595e-11 -3.63516e-10)
(0.00763117 -7.44805e-11 1.50984e-10)
(0.00763108 1.24106e-10 -2.32125e-11)
(0.0076312 -1.27431e-10 -9.07005e-11)
(0.00763104 9.85329e-11 9.25995e-11)
(0.00763125 -2.61791e-10 -7.31528e-10)
(0.00763102 1.36661e-10 5.43226e-10)
(0.00763134 -1.89567e-10 -1.27236e-09)
(0.00763099 1.1068e-10 1.07553e-09)
(0.00763142 1.06364e-10 -1.84092e-09)
(0.00763102 1.6065e-10 2.65496e-09)
(0.00763133 2.20688e-10 -2.01023e-09)
(0.00763105 -4.91354e-11 2.54808e-09)
(0.00763124 5.52665e-10 -2.39757e-09)
(0.00763115 -4.04862e-10 3.20701e-09)
(0.00617687 -2.88823e-05 0.000111713)
(0.00853444 -1.64267e-06 7.02447e-06)
(0.00707799 9.70326e-07 -4.24748e-06)
(0.00796869 -5.88891e-07 2.57954e-06)
(0.0074249 3.59301e-07 -1.56643e-06)
(0.00775719 -2.19011e-07 9.48817e-07)
(0.00755447 1.3659e-07 -5.74167e-07)
(0.00767725 -8.4164e-08 3.44127e-07)
(0.00760384 5.08748e-08 -2.01059e-07)
(0.007647 -3.06275e-08 1.15217e-07)
(0.00762219 1.69766e-08 -6.36956e-08)
(0.00763603 -9.82884e-09 3.41421e-08)
(0.00762861 4.79858e-09 -1.79526e-08)
(0.00763236 -2.61215e-09 8.91727e-09)
(0.00763046 1.17139e-09 -4.76935e-09)
(0.0076314 -6.38164e-10 2.58513e-09)
(0.00763099 2.9275e-10 -1.4024e-09)
(0.00763118 -1.38059e-10 9.77324e-10)
(0.0076311 4.58537e-11 -6.67189e-10)
(0.00763113 -6.33396e-11 6.17854e-10)
(0.00763112 5.54929e-11 -5.29491e-10)
(0.00763113 9.00964e-11 3.49574e-10)
(0.00763111 -6.33049e-11 -3.55096e-10)
(0.00763117 1.0983e-10 1.46723e-10)
(0.00763108 -1.0978e-10 -2.03196e-11)
(0.0076312 1.06564e-10 -9.54065e-11)
(0.00763104 -1.06034e-11 1.03658e-10)
(0.00763125 2.5271e-10 -7.19565e-10)
(0.00763101 -6.37899e-11 5.52181e-10)
(0.00763134 3.40364e-10 -1.25404e-09)
(0.00763098 -5.40475e-11 1.08781e-09)
(0.00763142 3.87093e-10 -1.83179e-09)
(0.00763102 -4.90912e-10 2.62408e-09)
(0.00763132 3.75593e-11 -2.02666e-09)
(0.00763105 -1.86829e-10 2.54316e-09)
(0.00763124 4.001e-11 -2.40196e-09)
(0.00763115 -7.66342e-10 3.18566e-09)
(0.00586077 -8.42099e-05 0.000113469)
(0.00809431 -4.70652e-06 7.0288e-06)
(0.00671141 2.78406e-06 -4.24626e-06)
(0.00755714 -1.69078e-06 2.57875e-06)
(0.00704089 1.03138e-06 -1.56574e-06)
(0.00735628 -6.31655e-07 9.48167e-07)
(0.00716391 3.93838e-07 -5.72965e-07)
(0.00728051 -2.42387e-07 3.4293e-07)
(0.00721066 1.44803e-07 -2.0046e-07)
(0.00725183 -8.51764e-08 1.14806e-07)
(0.00722808 4.73538e-08 -6.35544e-08)
(0.00724137 -2.63691e-08 3.40921e-08)
(0.00723421 1.33775e-08 -1.79335e-08)
(0.00723785 -6.38853e-09 8.94563e-09)
(0.00723601 3.09294e-09 -4.75331e-09)
(0.00723692 -1.63305e-09 2.60728e-09)
(0.00723652 8.61127e-10 -1.41658e-09)
(0.0072367 -4.02271e-10 9.83225e-10)
(0.00723662 1.9297e-10 -6.78554e-10)
(0.00723666 -2.12847e-10 6.18068e-10)
(0.00723665 1.721e-10 -5.23194e-10)
(0.00723666 1.70648e-10 3.72263e-10)
(0.00723664 -1.7515e-10 -3.55563e-10)
(0.00723669 2.67455e-10 1.64069e-10)
(0.00723661 -3.34193e-10 -3.46718e-11)
(0.00723672 3.52888e-10 -8.68237e-11)
(0.00723658 -2.23816e-10 1.40486e-10)
(0.00723677 6.56826e-10 -6.53229e-10)
(0.00723656 -3.38669e-10 5.97236e-10)
(0.00723685 7.16539e-10 -1.17873e-09)
(0.00723653 -3.44435e-10 1.16979e-09)
(0.00723693 6.28964e-10 -1.81541e-09)
(0.00723657 -9.37192e-10 2.51267e-09)
(0.00723684 8.82804e-11 -2.15353e-09)
(0.00723658 -3.72723e-10 2.5757e-09)
(0.00723676 -2.62323e-10 -2.51458e-09)
(0.00723667 -9.23812e-10 3.15271e-09)
(0.00517686 -0.000130332 0.000116935)
(0.00714367 -6.8829e-06 6.96628e-06)
(0.00592034 4.08246e-06 -4.20251e-06)
(0.00666836 -2.48111e-06 2.55129e-06)
(0.0062119 1.51286e-06 -1.5482e-06)
(0.00649063 -9.2576e-07 9.35984e-07)
(0.00632068 5.72998e-07 -5.6447e-07)
(0.00642387 -3.50378e-07 3.37601e-07)
(0.00636181 2.08512e-07 -1.97269e-07)
(0.00639856 -1.2156e-07 1.1314e-07)
(0.00637723 6.76521e-08 -6.26491e-08)
(0.00638923 -3.70952e-08 3.37591e-08)
(0.00638271 1.89542e-08 -1.77457e-08)
(0.00638605 -9.07858e-09 8.99121e-09)
(0.00638436 4.46122e-09 -4.81563e-09)
(0.0063852 -2.32501e-09 2.58329e-09)
(0.00638483 1.28617e-09 -1.3951e-09)
(0.00638501 -6.52099e-10 9.96063e-10)
(0.00638493 3.795e-10 -6.7295e-10)
(0.00638497 -3.38451e-10 6.47662e-10)
(0.00638495 2.60264e-10 -5.61826e-10)
(0.00638497 1.22741e-10 3.84519e-10)
(0.00638495 -1.83189e-10 -4.14854e-10)
(0.00638499 3.12462e-10 2.03498e-10)
(0.00638492 -4.40744e-10 -9.72354e-11)
(0.00638502 5.06867e-10 -9.72241e-12)
(0.0063849 -4.32699e-10 6.78139e-12)
(0.00638506 8.69702e-10 -6.69824e-10)
(0.00638489 -5.94826e-10 5.07137e-10)
(0.00638514 9.54152e-10 -1.27248e-09)
(0.00638488 -7.15543e-10 1.07701e-09)
(0.00638521 1.01673e-09 -1.92055e-09)
(0.00638491 -1.41182e-09 2.74763e-09)
(0.00638511 6.15096e-10 -2.13511e-09)
(0.00638491 -8.89489e-10 2.69989e-09)
(0.00638505 1.91741e-10 -2.67251e-09)
(0.00638496 -1.28513e-09 3.48616e-09)
(0.00398911 -0.000144224 0.000117106)
(0.00549733 -6.69514e-06 6.37321e-06)
(0.00455235 3.9823e-06 -3.84183e-06)
(0.00512974 -2.4213e-06 2.33242e-06)
(0.00477756 1.47493e-06 -1.41535e-06)
(0.00499247 -8.992e-07 8.55799e-07)
(0.00486148 5.49903e-07 -5.16652e-07)
(0.00494122 -3.33093e-07 3.09415e-07)
(0.00489299 1.97475e-07 -1.8102e-07)
(0.00492174 -1.14206e-07 1.03988e-07)
(0.00490491 6.34465e-08 -5.75828e-08)
(0.00491446 -3.42696e-08 3.10768e-08)
(0.00490922 1.7396e-08 -1.62828e-08)
(0.00491194 -8.76295e-09 8.24901e-09)
(0.00491056 4.33595e-09 -4.40197e-09)
(0.00491125 -2.14216e-09 2.33265e-09)
(0.00491094 1.25407e-09 -1.26589e-09)
(0.00491109 -7.24997e-10 8.95899e-10)
(0.00491102 4.86228e-10 -6.01401e-10)
(0.00491105 -3.79334e-10 5.82903e-10)
(0.00491104 2.93923e-10 -5.07745e-10)
(0.00491106 -3.17256e-11 3.26981e-10)
(0.00491104 -3.98586e-11 -3.59665e-10)
(0.00491108 1.9783e-10 1.64157e-10)
(0.00491102 -3.30899e-10 -7.29995e-11)
(0.00491109 4.25065e-10 -1.76681e-11)
(0.00491101 -4.12275e-10 -4.95913e-12)
(0.00491113 8.0695e-10 -6.34207e-10)
(0.00491102 -6.05857e-10 4.46463e-10)
(0.00491119 1.02513e-09 -1.18638e-09)
(0.00491102 -8.75151e-10 9.43789e-10)
(0.00491125 1.46807e-09 -1.7604e-09)
(0.00491104 -1.92564e-09 2.53726e-09)
(0.00491116 1.30697e-09 -1.87229e-09)
(0.00491103 -1.56314e-09 2.41569e-09)
(0.00491111 1.29969e-09 -2.36703e-09)
(0.00491104 -1.92116e-09 3.19142e-09)
(0.00195414 -7.39599e-05 7.39598e-05)
(0.00268757 -3.5414e-06 3.54166e-06)
(0.00222255 2.14227e-06 -2.14214e-06)
(0.00250601 -1.3036e-06 1.30352e-06)
(0.00233322 7.93615e-07 -7.93418e-07)
(0.00243859 -4.82869e-07 4.83533e-07)
(0.00237436 2.93056e-07 -2.95837e-07)
(0.0024136 -1.7682e-07 1.79185e-07)
(0.0023897 1.05215e-07 -1.0598e-07)
(0.00240406 -6.10539e-08 6.14178e-08)
(0.00239558 3.43656e-08 -3.42949e-08)
(0.00240043 -1.86573e-08 1.8601e-08)
(0.00239775 9.66909e-09 -9.76453e-09)
(0.00239914 -5.04996e-09 4.72739e-09)
(0.00239844 2.51865e-09 -2.43099e-09)
(0.00239879 -1.24206e-09 1.30694e-09)
(0.00239863 6.96937e-10 -7.11679e-10)
(0.00239871 -4.25095e-10 4.27209e-10)
(0.00239867 2.86805e-10 -2.78548e-10)
(0.00239869 -2.02461e-10 2.33126e-10)
(0.00239868 1.41044e-10 -1.7908e-10)
(0.0023987 -6.19546e-11 6.89887e-11)
(0.00239868 6.86913e-12 -2.50847e-11)
(0.0023987 7.33175e-11 -4.64617e-11)
(0.00239868 -1.36672e-10 1.15577e-10)
(0.00239871 1.90299e-10 -1.68024e-10)
(0.00239867 -2.27696e-10 1.9161e-10)
(0.00239873 3.53257e-10 -3.443e-10)
(0.00239869 -3.4772e-10 3.26936e-10)
(0.00239876 5.07325e-10 -4.65181e-10)
(0.00239869 -5.34301e-10 4.86635e-10)
(0.0023988 8.25478e-10 -6.20566e-10)
(0.00239871 -9.983e-10 8.17301e-10)
(0.00239874 8.7396e-10 -6.71718e-10)
(0.00239869 -9.21752e-10 7.70011e-10)
(0.00239871 9.75316e-10 -6.12672e-10)
(0.00239868 -1.06559e-09 9.17252e-10)
(0.00398912 0.000117106 0.000144225)
(0.00549732 6.37319e-06 6.69535e-06)
(0.00455236 -3.84169e-06 -3.98211e-06)
(0.00512972 2.3323e-06 2.4212e-06)
(0.00477758 -1.4153e-06 -1.47462e-06)
(0.00499246 8.54821e-07 9.00826e-07)
(0.00486148 -5.15688e-07 -5.53825e-07)
(0.00494124 3.09173e-07 3.3635e-07)
(0.00489298 -1.80508e-07 -1.98551e-07)
(0.00492176 1.0374e-07 1.14373e-07)
(0.0049049 -5.73116e-08 -6.34098e-08)
(0.00491447 3.07771e-08 3.40829e-08)
(0.00490922 -1.61552e-08 -1.75766e-08)
(0.00491194 8.16989e-09 8.24354e-09)
(0.00491056 -4.40714e-09 -4.2213e-09)
(0.00491125 2.2383e-09 2.20513e-09)
(0.00491094 -1.20631e-09 -1.27051e-09)
(0.00491109 8.80832e-10 7.19095e-10)
(0.00491102 -5.86966e-10 -4.70143e-10)
(0.00491105 5.87152e-10 4.05426e-10)
(0.00491104 -5.20042e-10 -3.18056e-10)
(0.00491106 3.15871e-10 3.86273e-11)
(0.00491104 -3.82259e-10 4.11005e-11)
(0.00491108 1.47882e-10 -1.73047e-10)
(0.00491102 -4.87209e-11 3.22431e-10)
(0.00491109 -2.08578e-11 -4.18769e-10)
(0.00491101 -2.92353e-11 4.25714e-10)
(0.00491113 -7.64972e-10 -7.68301e-10)
(0.00491102 4.60459e-10 6.26564e-10)
(0.00491119 -1.43832e-09 -8.94555e-10)
(0.00491102 1.0079e-09 8.71981e-10)
(0.00491125 -2.01539e-09 -1.06685e-09)
(0.00491104 2.92541e-09 1.53352e-09)
(0.00491116 -1.94638e-09 -1.04004e-09)
(0.00491103 2.57708e-09 1.29727e-09)
(0.00491111 -2.54903e-09 -7.20449e-10)
(0.00491104 3.45518e-09 1.33818e-09)
(0.00907607 0.000249776 0.000249776)
(0.0125303 1.24079e-05 1.24079e-05)
(0.0103879 -7.34384e-06 -7.34387e-06)
(0.0116979 4.45679e-06 4.45682e-06)
(0.0108985 -2.7169e-06 -2.71694e-06)
(0.0113865 1.66411e-06 1.66398e-06)
(0.0110892 -1.02566e-06 -1.02559e-06)
(0.0112696 6.23506e-07 6.23307e-07)
(0.0111611 -3.68544e-07 -3.68545e-07)
(0.0112254 2.11668e-07 2.11806e-07)
(0.011188 -1.17172e-07 -1.17243e-07)
(0.0112091 6.2491e-08 6.25691e-08)
(0.0111975 -3.19711e-08 -3.20006e-08)
(0.0112036 1.45912e-08 1.4696e-08)
(0.0112005 -7.32573e-09 -7.38625e-09)
(0.011202 3.95451e-09 3.9765e-09)
(0.0112013 -2.33384e-09 -2.33495e-09)
(0.0112017 1.27448e-09 1.27464e-09)
(0.0112015 -8.47312e-10 -8.44326e-10)
(0.0112016 6.59815e-10 6.57134e-10)
(0.0112015 -4.6444e-10 -4.61565e-10)
(0.0112016 5.99972e-12 2.86142e-12)
(0.0112015 2.6049e-10 2.617e-10)
(0.0112016 -4.49562e-10 -4.52913e-10)
(0.0112015 7.67767e-10 7.68337e-10)
(0.0112017 -9.84719e-10 -9.85269e-10)
(0.0112015 1.08944e-09 1.08649e-09)
(0.0112018 -1.33262e-09 -1.33411e-09)
(0.0112014 1.28383e-09 1.28121e-09)
(0.0112019 -1.25861e-09 -1.27715e-09)
(0.0112014 1.62156e-09 1.63303e-09)
(0.011202 -1.53738e-09 -1.56337e-09)
(0.0112015 2.08758e-09 2.10687e-09)
(0.0112018 -1.74399e-09 -1.78428e-09)
(0.0112015 1.90289e-09 1.94569e-09)
(0.0112017 -7.91261e-10 -8.16973e-10)
(0.0112016 1.55209e-09 1.55826e-09)
(0.0123018 0.000246579 0.00027878)
(0.0170049 1.34973e-05 1.44334e-05)
(0.0141066 -7.94268e-06 -8.52824e-06)
(0.0158786 4.80892e-06 5.16614e-06)
(0.0147968 -2.93095e-06 -3.14903e-06)
(0.0154577 1.79701e-06 1.92889e-06)
(0.0150548 -1.11601e-06 -1.19136e-06)
(0.0152987 6.84571e-07 7.24599e-07)
(0.0151528 -4.05432e-07 -4.27128e-07)
(0.0152387 2.34997e-07 2.44843e-07)
(0.0151892 -1.31419e-07 -1.34803e-07)
(0.0152169 7.16053e-08 7.17784e-08)
(0.0152019 -3.7734e-08 -3.65396e-08)
(0.0152096 1.66144e-08 1.63695e-08)
(0.0152057 -8.71589e-09 -8.30075e-09)
(0.0152077 4.58358e-09 4.49072e-09)
(0.0152068 -2.54115e-09 -2.6604e-09)
(0.0152072 1.29007e-09 1.44543e-09)
(0.015207 -7.13334e-10 -9.43838e-10)
(0.0152071 7.63986e-10 8.09242e-10)
(0.0152071 -5.96759e-10 -6.12286e-10)
(0.0152071 -1.80217e-10 -2.86891e-11)
(0.015207 2.72293e-10 2.69217e-10)
(0.0152071 -4.84147e-10 -5.13859e-10)
(0.015207 7.59984e-10 8.87016e-10)
(0.0152072 -8.66892e-10 -1.1283e-09)
(0.0152069 7.39171e-10 1.16027e-09)
(0.0152073 -1.611e-09 -1.70212e-09)
(0.0152068 1.10773e-09 1.43766e-09)
(0.0152075 -1.57924e-09 -1.68091e-09)
(0.0152068 1.24447e-09 1.85042e-09)
(0.0152076 -9.66533e-10 -1.83733e-09)
(0.0152069 1.99728e-09 2.74231e-09)
(0.0152074 -4.04092e-10 -1.9014e-09)
(0.0152069 1.08326e-09 2.35391e-09)
(0.0152073 9.02292e-10 -6.63032e-10)
(0.0152071 8.93437e-10 1.96286e-09)
(0.0142205 0.000169093 0.00028471)
(0.0196734 9.68062e-06 1.50683e-05)
(0.0163272 -5.6731e-06 -8.90821e-06)
(0.0183725 3.43e-06 5.39068e-06)
(0.0171234 -2.09147e-06 -3.28639e-06)
(0.0178868 1.28621e-06 2.01424e-06)
(0.0174213 -8.04236e-07 -1.24741e-06)
(0.0177026 4.96146e-07 7.60406e-07)
(0.017535 -2.93764e-07 -4.48311e-07)
(0.0176332 1.70016e-07 2.57229e-07)
(0.0175769 -9.5235e-08 -1.4148e-07)
(0.0176083 5.19083e-08 7.54693e-08)
(0.0175914 -2.75123e-08 -3.837e-08)
(0.0176 1.14035e-08 1.69103e-08)
(0.0175956 -6.11573e-09 -8.58818e-09)
(0.0175978 3.1479e-09 4.63563e-09)
(0.0175968 -1.79671e-09 -2.74391e-09)
(0.0175973 8.32867e-10 1.44922e-09)
(0.0175971 -4.11928e-10 -9.1689e-10)
(0.0175972 5.33448e-10 8.34315e-10)
(0.0175972 -4.23022e-10 -6.44329e-10)
(0.0175972 -2.50866e-10 -1.18581e-10)
(0.0175971 2.97372e-10 3.34975e-10)
(0.0175972 -4.19923e-10 -5.96466e-10)
(0.0175971 6.29448e-10 9.79435e-10)
(0.0175973 -6.79029e-10 -1.20339e-09)
(0.017597 5.30381e-10 1.16429e-09)
(0.0175975 -1.23036e-09 -1.88682e-09)
(0.0175969 7.5586e-10 1.46065e-09)
(0.0175976 -1.02863e-09 -1.84382e-09)
(0.0175968 6.98981e-10 1.8285e-09)
(0.0175978 -1.28312e-10 -1.79429e-09)
(0.0175968 9.91708e-10 2.8619e-09)
(0.0175976 4.57799e-10 -1.6172e-09)
(0.0175969 1.43783e-10 2.22903e-09)
(0.0175974 1.79312e-09 -1.65373e-10)
(0.0175972 -4.05635e-10 1.86076e-09)
(0.0151185 5.95274e-05 0.000285089)
(0.0209243 3.45755e-06 1.52198e-05)
(0.0173689 -2.02126e-06 -9.00589e-06)
(0.0195415 1.22079e-06 5.44681e-06)
(0.0182145 -7.44077e-07 -3.3205e-06)
(0.0190257 4.59955e-07 2.03506e-06)
(0.0185309 -2.89264e-07 -1.26157e-06)
(0.0188297 1.79161e-07 7.69844e-07)
(0.0186521 -1.04902e-07 -4.53913e-07)
(0.0187558 5.93719e-08 2.60679e-07)
(0.0186966 -3.3302e-08 -1.43304e-07)
(0.0187295 1.76901e-08 7.65276e-08)
(0.0187119 -9.62393e-09 -3.89088e-08)
(0.0187208 3.24766e-09 1.70456e-08)
(0.0187163 -1.98121e-09 -8.67415e-09)
(0.0187185 9.25526e-10 4.66901e-09)
(0.0187175 -6.25511e-10 -2.75726e-09)
(0.018718 2.68058e-10 1.44341e-09)
(0.0187178 -1.2305e-10 -8.96492e-10)
(0.0187179 2.29689e-10 8.49152e-10)
(0.0187178 -1.89208e-10 -6.66496e-10)
(0.0187178 -9.07379e-11 -1.51901e-10)
(0.0187178 1.0261e-10 3.45282e-10)
(0.0187179 -1.24997e-10 -6.18412e-10)
(0.0187177 2.34594e-10 9.97548e-10)
(0.018718 -2.51102e-10 -1.20219e-09)
(0.0187176 2.08824e-10 1.11874e-09)
(0.0187182 -4.69534e-10 -1.96229e-09)
(0.0187175 2.87468e-10 1.44034e-09)
(0.0187183 -2.74599e-10 -1.93997e-09)
(0.0187174 2.33612e-10 1.79394e-09)
(0.0187185 3.55092e-10 -1.80757e-09)
(0.0187174 1.33824e-10 2.96788e-09)
(0.0187183 4.67788e-10 -1.48169e-09)
(0.0187176 -1.63305e-10 2.19197e-09)
(0.0187181 1.21601e-09 5.10641e-12)
(0.0187179 -1.00973e-09 1.92699e-09)
(0.0151185 -5.95259e-05 0.00028509)
(0.0209243 -3.4583e-06 1.52198e-05)
(0.0173689 2.02254e-06 -9.00588e-06)
(0.0195415 -1.22172e-06 5.44679e-06)
(0.0182144 7.455e-07 -3.32048e-06)
(0.0190257 -4.5381e-07 2.03489e-06)
(0.0185309 2.81764e-07 -1.26135e-06)
(0.0188297 -1.7328e-07 7.6966e-07)
(0.0186521 1.04806e-07 -4.53835e-07)
(0.0187558 -6.33951e-08 2.60708e-07)
(0.0186966 3.52953e-08 -1.43294e-07)
(0.0187295 -2.01933e-08 7.64796e-08)
(0.0187119 1.01587e-08 -3.88999e-08)
(0.0187208 -5.56301e-09 1.70533e-08)
(0.0187163 2.54601e-09 -8.67258e-09)
(0.0187185 -1.4241e-09 4.67873e-09)
(0.0187175 6.4293e-10 -2.7607e-09)
(0.018718 -3.26052e-10 1.44772e-09)
(0.0187178 1.6276e-10 -9.04513e-10)
(0.0187179 -1.23518e-10 8.46721e-10)
(0.0187178 1.01901e-10 -6.62823e-10)
(0.0187178 1.2629e-10 -1.42641e-10)
(0.0187178 -1.12935e-10 3.44992e-10)
(0.0187179 2.1397e-10 -6.18839e-10)
(0.0187177 -2.13288e-10 9.99314e-10)
(0.018718 2.11243e-10 -1.20417e-09)
(0.0187176 -7.47361e-11 1.12908e-09)
(0.0187182 4.66004e-10 -1.95611e-09)
(0.0187175 -1.79431e-10 1.44782e-09)
(0.0187183 6.65174e-10 -1.9401e-09)
(0.0187174 -1.94459e-10 1.81028e-09)
(0.0187185 8.61346e-10 -1.83386e-09)
(0.0187174 -9.53647e-10 2.97001e-09)
(0.0187183 2.49795e-10 -1.51776e-09)
(0.0187176 -4.298e-10 2.20781e-09)
(0.0187181 3.18314e-10 -4.18747e-11)
(0.0187179 -1.62187e-09 1.96436e-09)
(0.0142205 -0.000169092 0.00028471)
(0.0196735 -9.68117e-06 1.50684e-05)
(0.0163272 5.67413e-06 -8.90819e-06)
(0.0183725 -3.43071e-06 5.39064e-06)
(0.0171234 2.09267e-06 -3.28634e-06)
(0.0178868 -1.28026e-06 2.01364e-06)
(0.0174213 7.9628e-07 -1.24668e-06)
(0.0177026 -4.89763e-07 7.59849e-07)
(0.017535 2.92963e-07 -4.48076e-07)
(0.0176332 -1.73061e-07 2.57333e-07)
(0.017577 9.66789e-08 -1.41471e-07)
(0.0176082 -5.38478e-08 7.5372e-08)
(0.0175914 2.77715e-08 -3.83542e-08)
(0.0176 -1.34673e-08 1.69549e-08)
(0.0175956 6.60902e-09 -8.5982e-09)
(0.0175978 -3.50001e-09 4.65519e-09)
(0.0175968 1.80393e-09 -2.74453e-09)
(0.0175973 -8.81598e-10 1.45922e-09)
(0.0175971 4.61898e-10 -9.33515e-10)
(0.0175972 -4.40237e-10 8.28147e-10)
(0.0175972 3.51552e-10 -6.36181e-10)
(0.0175972 2.73465e-10 -9.96651e-11)
(0.0175971 -2.96506e-10 3.3073e-10)
(0.0175972 4.97121e-10 -6.00747e-10)
(0.0175971 -6.15759e-10 9.84807e-10)
(0.0175973 6.49357e-10 -1.20607e-09)
(0.017597 -4.23379e-10 1.17802e-09)
(0.0175975 1.25345e-09 -1.88974e-09)
(0.0175969 -6.72301e-10 1.4729e-09)
(0.0175976 1.4278e-09 -1.88253e-09)
(0.0175968 -7.02152e-10 1.86681e-09)
(0.0175978 1.34539e-09 -1.89905e-09)
(0.0175968 -1.87369e-09 2.93125e-09)
(0.0175976 2.97299e-10 -1.71297e-09)
(0.0175969 -7.88782e-10 2.29637e-09)
(0.0175974 -2.36616e-10 -3.11924e-10)
(0.0175972 -2.03513e-09 2.01398e-09)
(0.0123017 -0.000246578 0.000278781)
(0.0170049 -1.34974e-05 1.44335e-05)
(0.0141066 7.94333e-06 -8.52826e-06)
(0.0158787 -4.80932e-06 5.16611e-06)
(0.0147968 2.93182e-06 -3.14898e-06)
(0.0154577 -1.79173e-06 1.92802e-06)
(0.0150549 1.10718e-06 -1.19014e-06)
(0.0152987 -6.77173e-07 7.23699e-07)
(0.0151529 4.03478e-07 -4.2684e-07)
(0.0152387 -2.36273e-07 2.45037e-07)
(0.0151892 1.32002e-07 -1.34886e-07)
(0.0152169 -7.26507e-08 7.17385e-08)
(0.0152019 3.75401e-08 -3.65558e-08)
(0.0152096 -1.82933e-08 1.64632e-08)
(0.0152057 9.11265e-09 -8.31424e-09)
(0.0152077 -4.67908e-09 4.51308e-09)
(0.0152068 2.5435e-09 -2.64992e-09)
(0.0152072 -1.32806e-09 1.45121e-09)
(0.015207 7.83379e-10 -9.57783e-10)
(0.0152071 -6.91939e-10 7.92928e-10)
(0.0152071 5.47727e-10 -5.91842e-10)
(0.0152071 1.8212e-10 -1.32268e-11)
(0.015207 -2.58051e-10 2.71255e-10)
(0.0152071 5.39198e-10 -5.28933e-10)
(0.015207 -7.52087e-10 9.02128e-10)
(0.0152072 8.52358e-10 -1.13707e-09)
(0.0152069 -6.74051e-10 1.18789e-09)
(0.0152073 1.6521e-09 -1.7157e-09)
(0.0152068 -1.0462e-09 1.47219e-09)
(0.0152075 1.92808e-09 -1.76333e-09)
(0.0152068 -1.27205e-09 1.93928e-09)
(0.0152076 2.10817e-09 -2.01323e-09)
(0.0152068 -2.91261e-09 2.87117e-09)
(0.0152074 1.17589e-09 -2.06591e-09)
(0.0152069 -1.77251e-09 2.46876e-09)
(0.0152073 6.48654e-10 -8.91767e-10)
(0.0152071 -2.8866e-09 2.1846e-09)
(0.00907605 -0.000249776 0.000249777)
(0.0125304 -1.24076e-05 1.2408e-05)
(0.0103878 7.34364e-06 -7.34386e-06)
(0.011698 -4.45653e-06 4.45679e-06)
(0.0108984 2.71697e-06 -2.71692e-06)
(0.0113866 -1.65966e-06 1.663e-06)
(0.0110892 1.01872e-06 -1.02467e-06)
(0.0112696 -6.1788e-07 6.22927e-07)
(0.0111611 3.65704e-07 -3.68503e-07)
(0.0112254 -2.10932e-07 2.12237e-07)
(0.011188 1.16304e-07 -1.17454e-07)
(0.0112091 -6.21409e-08 6.2677e-08)
(0.0111975 3.12263e-08 -3.21046e-08)
(0.0112036 -1.53215e-08 1.47914e-08)
(0.0112005 7.51711e-09 -7.421e-09)
(0.011202 -3.7085e-09 4.00866e-09)
(0.0112013 2.29118e-09 -2.30192e-09)
(0.0112017 -1.27821e-09 1.27541e-09)
(0.0112015 9.10431e-10 -8.3784e-10)
(0.0112016 -6.65923e-10 6.44283e-10)
(0.0112015 5.19439e-10 -4.47194e-10)
(0.0112016 -1.61238e-11 -1.25194e-12)
(0.0112015 -1.83342e-10 2.55452e-10)
(0.0112016 4.52984e-10 -4.74535e-10)
(0.0112015 -7.53911e-10 7.83067e-10)
(0.0112017 9.5442e-10 -9.84235e-10)
(0.0112015 -9.83619e-10 1.07209e-09)
(0.0112018 1.52076e-09 -1.39449e-09)
(0.0112014 -1.22271e-09 1.29363e-09)
(0.0112019 1.74417e-09 -1.44757e-09)
(0.0112014 -1.65796e-09 1.69753e-09)
(0.011202 2.54161e-09 -1.7663e-09)
(0.0112015 -3.19807e-09 2.3443e-09)
(0.0112018 2.30317e-09 -1.88597e-09)
(0.0112015 -2.60716e-09 2.06969e-09)
(0.0112017 1.98082e-09 -9.9406e-10)
(0.0112016 -3.01409e-09 1.86047e-09)
(0.00398911 -0.000117106 0.000144225)
(0.00549733 -6.3728e-06 6.69555e-06)
(0.00455235 3.84197e-06 -3.98207e-06)
(0.00512974 -2.33249e-06 2.42117e-06)
(0.00477756 1.41565e-06 -1.47456e-06)
(0.00499247 -8.54435e-07 9.00685e-07)
(0.00486148 5.11916e-07 -5.54511e-07)
(0.00494122 -3.05416e-07 3.36992e-07)
(0.00489299 1.79601e-07 -1.98823e-07)
(0.00492174 -1.03351e-07 1.1475e-07)
(0.00490491 5.75762e-08 -6.34386e-08)
(0.00491446 -3.10904e-08 3.40536e-08)
(0.00490922 1.60593e-08 -1.76157e-08)
(0.00491194 -8.77801e-09 8.14238e-09)
(0.00491056 4.54896e-09 -4.17988e-09)
(0.00491125 -2.21348e-09 2.26686e-09)
(0.00491094 1.24377e-09 -1.28833e-09)
(0.00491109 -8.97237e-10 7.3666e-10)
(0.00491102 6.25117e-10 -4.84202e-10)
(0.00491105 -5.41419e-10 4.18317e-10)
(0.00491104 4.59382e-10 -3.31288e-10)
(0.00491106 -3.23472e-10 6.10397e-11)
(0.00491104 3.43524e-10 2.55571e-11)
(0.00491108 -1.27085e-10 -1.59285e-10)
(0.00491102 4.68211e-11 3.07827e-10)
(0.00491109 4.46208e-11 -4.02582e-10)
(0.00491101 -3.47081e-11 4.07388e-10)
(0.00491113 6.59843e-10 -7.46896e-10)
(0.00491102 -4.63499e-10 6.11004e-10)
(0.00491119 1.2801e-09 -8.74135e-10)
(0.00491102 -9.9936e-10 8.48146e-10)
(0.00491125 2.14135e-09 -1.03421e-09)
(0.00491104 -2.89533e-09 1.46991e-09)
(0.00491116 2.20444e-09 -9.99293e-10)
(0.00491102 -2.69097e-09 1.25166e-09)
(0.00491111 3.00105e-09 -6.60541e-10)
(0.00491104 -3.53681e-09 1.42628e-09)
(0.00517687 0.000116936 0.000130332)
(0.00714366 6.96632e-06 6.88287e-06)
(0.00592035 -4.20226e-06 -4.08205e-06)
(0.00666834 2.55101e-06 2.48087e-06)
(0.00621191 -1.54787e-06 -1.51241e-06)
(0.00649062 9.35701e-07 9.28021e-07)
(0.00632067 -5.64574e-07 -5.76955e-07)
(0.00642389 3.37865e-07 3.53606e-07)
(0.00636178 -1.96939e-07 -2.09296e-07)
(0.00639858 1.12749e-07 1.21041e-07)
(0.00637722 -6.22583e-08 -6.7387e-08)
(0.00638924 3.32814e-08 3.65258e-08)
(0.00638271 -1.75931e-08 -1.906e-08)
(0.00638606 8.73053e-09 8.33866e-09)
(0.00638436 -4.7155e-09 -4.32459e-09)
(0.0063852 2.52681e-09 2.30535e-09)
(0.00638483 -1.38036e-09 -1.30341e-09)
(0.00638501 9.82526e-10 6.47117e-10)
(0.00638493 -6.82112e-10 -3.73938e-10)
(0.00638497 6.5041e-10 3.71794e-10)
(0.00638495 -5.66972e-10 -2.87458e-10)
(0.00638497 4.0429e-10 -1.05394e-10)
(0.00638495 -4.15785e-10 1.82079e-10)
(0.00638499 2.0664e-10 -2.81979e-10)
(0.00638492 -7.54967e-11 4.34974e-10)
(0.00638502 -2.60288e-11 -5.06449e-10)
(0.0063849 6.9636e-11 4.65109e-10)
(0.00638507 -6.88045e-10 -8.31977e-10)
(0.00638489 5.81611e-10 6.21825e-10)
(0.00638514 -1.31417e-09 -7.77748e-10)
(0.00638488 1.20577e-09 7.09022e-10)
(0.00638521 -1.96956e-09 -4.94141e-10)
(0.00638491 2.7568e-09 9.64571e-10)
(0.00638511 -2.22881e-09 -2.9823e-10)
(0.00638491 2.72226e-09 5.92661e-10)
(0.00638505 -2.71802e-09 4.936e-10)
(0.00638496 3.43427e-09 3.52516e-10)
(0.0123018 0.00027878 0.000246579)
(0.0170049 1.44334e-05 1.34974e-05)
(0.0141066 -8.52821e-06 -7.94276e-06)
(0.0158786 5.16611e-06 4.809e-06)
(0.0147968 -3.14899e-06 -2.93104e-06)
(0.0154577 1.92909e-06 1.79682e-06)
(0.0150548 -1.19142e-06 -1.11601e-06)
(0.0152987 7.2484e-07 6.84275e-07)
(0.0151528 -4.27113e-07 -4.05515e-07)
(0.0152387 2.44626e-07 2.35344e-07)