/*--------------------------------*- C++ -*----------------------------------*\
  =========                 |
  \\      /  F ield         | OpenFOAM: The Open Source CFD Toolbox
   \\    /   O peration     | Website:  https://openfoam.org
    \\  /    A nd           | Version:  13
     \\/     M anipulation  |
\*---------------------------------------------------------------------------*/
FoamFile
{
    format      ascii;
    class       surfaceScalarField;
    location    "29";
    object      phi;
}
// * * * * * * * * * * * * * * * * * * * * * * * * * * * * * * * * * * * * * //

dimensions      [0 3 -1 0 0 0 0];

internalField   nonuniform List<scalar> 
10260
(
2.94833e-12
6.86083e-12
6.86084e-12
2.13652e-12
4.05908e-13
4.05908e-13
2.51329e-12
-1.88371e-13
-1.88392e-13
2.33931e-12
8.69685e-14
8.69853e-14
2.42873e-12
-4.46765e-14
-4.46976e-14
2.38361e-12
2.26187e-14
2.26383e-14
2.40542e-12
-1.10566e-14
-1.10488e-14
2.39557e-12
5.00237e-15
4.99794e-15
2.39985e-12
-2.15214e-15
-2.15776e-15
2.39814e-12
8.45752e-16
8.53776e-16
2.39881e-12
-3.29084e-16
-3.32367e-16
2.39857e-12
1.15467e-16
1.20184e-16
2.3987e-12
-6.09136e-17
-6.03555e-17
2.39858e-12
5.09414e-17
5.21113e-17
2.39867e-12
-4.17649e-17
-4.25755e-17
2.39862e-12
1.83229e-17
1.82509e-17
2.39867e-12
-2.05289e-17
-2.09325e-17
2.39862e-12
1.90766e-17
1.93143e-17
2.39866e-12
-1.7661e-17
-1.85804e-17
2.39865e-12
1.06155e-17
1.14248e-17
2.39866e-12
-1.03945e-17
-1.069e-17
2.39864e-12
6.41516e-18
7.26679e-18
2.39866e-12
-1.44311e-17
-1.28193e-17
2.39865e-12
1.03101e-17
8.78278e-18
2.39865e-12
-2.74597e-18
-2.79653e-18
2.39867e-12
-7.08444e-18
-7.65783e-18
2.39865e-12
8.77032e-18
8.19891e-18
2.39868e-12
-1.83707e-17
-1.75239e-17
2.39866e-12
8.96573e-18
9.14379e-18
2.39871e-12
-3.11358e-17
-3.08514e-17
2.39863e-12
3.74667e-17
3.70404e-17
2.39878e-12
-6.54838e-17
-6.55934e-17
2.39862e-12
8.39218e-17
8.36408e-17
2.3988e-12
-8.28261e-17
-8.31925e-17
2.39859e-12
1.0396e-16
1.03666e-16
2.39881e-12
-9.22905e-17
-9.23809e-17
1.03481e-16
1.02755e-16
5.50777e-12
7.28665e-12
1.07364e-11
4.64017e-12
5.30712e-13
7.42824e-13
5.01371e-12
-2.38818e-13
-3.23089e-13
4.85657e-12
1.03069e-13
1.40981e-13
4.93863e-12
-5.3852e-14
-7.27657e-14
4.89725e-12
2.77495e-14
3.6654e-14
4.91688e-12
-1.39482e-14
-1.75933e-14
4.90832e-12
6.29041e-15
7.69744e-15
4.91194e-12
-2.70715e-15
-3.15588e-15
4.91057e-12
1.03738e-15
1.14872e-15
4.91109e-12
-4.15314e-16
-4.01128e-16
4.91093e-12
1.34071e-16
1.4017e-16
4.91103e-12
-7.22802e-17
-8.33649e-17
4.91091e-12
5.22983e-17
8.61924e-17
4.911e-12
-4.99828e-17
-7.80157e-17
4.91095e-12
3.98274e-18
3.15299e-17
4.911e-12
-1.43186e-17
-4.07889e-17
4.91095e-12
7.60198e-18
4.21874e-17
4.911e-12
-6.20592e-18
-4.44208e-17
4.91099e-12
1.07989e-17
2.49168e-17
4.91099e-12
-1.59793e-17
-2.50775e-17
4.91097e-12
-1.62204e-17
2.83104e-17
4.91099e-12
-1.73922e-17
-2.76817e-17
4.91098e-12
-1.31042e-18
3.8751e-17
4.91099e-12
1.93123e-17
-3.56191e-17
4.91102e-12
-1.35526e-18
-2.51139e-17
4.91099e-12
3.36865e-18
1.72569e-17
4.91101e-12
-5.09142e-17
-1.81402e-17
4.911e-12
1.07138e-17
1.02927e-17
4.91105e-12
-5.17488e-17
-6.06239e-17
4.91098e-12
3.82182e-17
7.37655e-17
4.91114e-12
-5.84498e-17
-1.36073e-16
4.91097e-12
9.79996e-17
1.79063e-16
4.91117e-12
-5.7582e-17
-1.77135e-16
4.91094e-12
1.07285e-16
2.26111e-16
4.91119e-12
-3.34634e-17
-2.08554e-16
7.94082e-17
2.38871e-16
6.90302e-12
5.56908e-12
1.14845e-11
6.14984e-12
4.34603e-13
8.49324e-13
6.46784e-12
-1.93139e-13
-3.63676e-13
6.34038e-12
7.80705e-14
1.52404e-13
6.40752e-12
-4.15704e-14
-7.92981e-14
6.37388e-12
2.17262e-14
4.00586e-14
6.38941e-12
-1.11177e-14
-1.92131e-14
6.38289e-12
4.9784e-15
8.24781e-15
6.38555e-12
-2.13006e-15
-3.32487e-15
6.38462e-12
7.87989e-16
1.1596e-15
6.38495e-12
-3.14001e-16
-4.045e-16
6.38486e-12
9.16603e-17
1.28145e-16
6.38493e-12
-4.98104e-17
-8.68322e-17
6.38482e-12
3.88498e-17
9.40841e-17
6.3849e-12
-4.18457e-17
-8.73773e-17
6.38485e-12
-1.15579e-17
3.14614e-17
6.3849e-12
-8.86552e-19
-4.59334e-17
6.38485e-12
-5.84631e-18
4.52265e-17
6.3849e-12
7.31436e-18
-4.81955e-17
6.38489e-12
1.89669e-18
3.20903e-17
6.38489e-12
-9.97626e-18
-3.42864e-17
6.38486e-12
-3.1784e-17
2.86761e-17
6.38489e-12
-1.18153e-17
-3.99188e-17
6.38487e-12
-9.70098e-18
4.07591e-17
6.38488e-12
2.94964e-17
-2.99598e-17
6.38491e-12
-3.20705e-18
-1.49519e-17
6.38488e-12
2.27474e-18
1.32912e-17
6.38489e-12
-6.30548e-17
-2.70347e-17
6.38488e-12
8.5269e-18
1.21427e-17
6.38493e-12
-5.74696e-17
-6.64602e-17
6.38485e-12
2.69763e-17
8.56835e-17
6.38502e-12
-4.18709e-17
-1.4816e-16
6.38485e-12
8.70575e-17
1.95503e-16
6.38506e-12
-2.10307e-17
-1.99556e-16
6.38484e-12
7.80058e-17
2.58716e-16
6.38511e-12
1.59883e-17
-2.22182e-16
3.85283e-17
2.56786e-16
7.69024e-12
2.95759e-12
1.15913e-11
7.02531e-12
2.35966e-13
8.63597e-13
7.31175e-12
-1.04851e-13
-3.74706e-13
7.1964e-12
4.04574e-14
1.52887e-13
7.257e-12
-2.18271e-14
-8.0206e-14
7.22684e-12
1.1527e-14
4.07323e-14
7.24051e-12
-5.99332e-15
-1.96397e-14
7.23487e-12
2.65251e-15
8.38503e-15
7.23715e-12
-1.12711e-15
-3.36277e-15
7.23637e-12
3.9846e-16
1.14703e-15
7.23664e-12
-1.59874e-16
-3.95633e-16
7.23657e-12
4.57942e-17
1.13143e-16
7.23662e-12
-2.18062e-17
-8.2878e-17
7.23651e-12
2.12271e-17
9.48701e-17
7.23659e-12
-2.46852e-17
-9.10163e-17
7.23654e-12
-2.06314e-17
2.70848e-17
7.23659e-12
1.18866e-17
-4.53273e-17
7.23654e-12
-1.53302e-17
4.32041e-17
7.23659e-12
1.7801e-17
-4.62492e-17
7.23658e-12
-5.43483e-18
3.05093e-17
7.23658e-12
-3.5811e-18
-3.34039e-17
7.23655e-12
-3.19165e-17
2.03815e-17
7.23658e-12
-9.16464e-18
-3.9294e-17
7.23655e-12
-9.19252e-18
3.59516e-17
7.23657e-12
2.76828e-17
-2.24918e-17
7.2366e-12
1.24146e-18
-1.78339e-17
7.23656e-12
7.34576e-19
1.44292e-17
7.23657e-12
-5.33296e-17
-3.80648e-17
7.23655e-12
9.87862e-18
9.58417e-18
7.23659e-12
-5.06978e-17
-6.99277e-17
7.23651e-12
2.33857e-17
7.96372e-17
7.23668e-12
-2.81451e-17
-1.44617e-16
7.23652e-12
6.73272e-17
1.94746e-16
7.23674e-12
-7.818e-18
-1.85354e-16
7.23652e-12
5.03183e-17
2.54104e-16
7.23681e-12
2.25258e-17
-1.98309e-16
1.00445e-17
2.43855e-16
8.04981e-12
1.64169e-17
1.15778e-11
7.43192e-12
-7.66247e-18
8.53896e-13
7.70379e-12
1.73195e-17
-3.76714e-13
7.59248e-12
2.96747e-17
1.51659e-13
7.65065e-12
2.24808e-17
-7.98708e-14
7.62182e-12
9.74584e-17
4.06074e-14
7.63477e-12
-1.58212e-16
-1.96336e-14
7.62945e-12
2.24151e-17
8.3805e-15
7.6316e-12
-1.07252e-17
-3.3456e-15
7.63086e-12
-2.51828e-17
1.13904e-15
7.63111e-12
2.01226e-18
-3.86648e-16
7.63105e-12
1.06453e-18
1.09117e-16
7.6311e-12
5.61739e-18
-8.06227e-17
7.63099e-12
-7.46069e-19
9.71555e-17
7.63107e-12
-3.64779e-19
-9.51448e-17
7.63102e-12
-2.21501e-17
2.29754e-17
7.63106e-12
2.06594e-17
-4.29405e-17
7.63101e-12
-2.03402e-17
4.1124e-17
7.63106e-12
2.35957e-17
-4.29267e-17
7.63106e-12
-1.08432e-17
2.97653e-17
7.63105e-12
3.29417e-18
-3.39687e-17
7.63102e-12
-2.1019e-17
1.45031e-17
7.63105e-12
-6.35055e-18
-4.12394e-17
7.63102e-12
-4.61599e-18
3.49552e-17
7.63104e-12
2.03687e-17
-2.02418e-17
7.63106e-12
8.01208e-18
-1.7476e-17
7.63103e-12
3.16427e-18
1.03779e-17
7.63103e-12
-2.62973e-17
-4.82397e-17
7.63101e-12
1.5613e-17
5.41246e-18
7.63105e-12
-2.73063e-17
-7.9737e-17
7.63096e-12
2.56719e-17
7.34164e-17
7.63113e-12
-8.25978e-18
-1.48619e-16
7.63098e-12
2.61867e-17
2.08832e-16
7.63121e-12
-9.1491e-18
-1.7458e-16
7.63099e-12
1.79555e-17
2.55199e-16
7.63128e-12
9.27334e-18
-1.88181e-16
-2.5901e-17
2.52006e-16
8.04981e-12
-2.95757e-12
1.15778e-11
7.43192e-12
-2.35981e-13
8.53898e-13
7.70379e-12
1.04889e-13
-3.76706e-13
7.59248e-12
-4.04058e-14
1.51656e-13
7.65065e-12
2.18729e-14
-7.98636e-14
7.62183e-12
-1.13378e-14
4.05917e-14
7.63478e-12
5.66781e-15
-1.96268e-14
7.62945e-12
-2.59128e-15
8.37587e-15
7.6316e-12
1.10387e-15
-3.34276e-15
7.63086e-12
-4.44753e-16
1.13685e-15
7.63112e-12
1.64511e-16
-3.86008e-16
7.63105e-12
-4.36263e-17
1.07325e-16
7.6311e-12
3.21493e-17
-8.08255e-17
7.63099e-12
-2.31014e-17
9.73416e-17
7.63107e-12
2.32393e-17
-9.47101e-17
7.63102e-12
-2.13777e-17
2.33925e-17
7.63106e-12
2.65992e-17
-4.26401e-17
7.63101e-12
-2.26422e-17
4.07271e-17
7.63106e-12
2.6397e-17
-4.16766e-17
7.63106e-12
-1.31375e-17
2.84649e-17
7.63105e-12
7.5946e-18
-3.27161e-17
7.63102e-12
-7.59903e-18
1.39097e-17
7.63105e-12
-3.95951e-18
-4.24468e-17
7.63102e-12
8.01842e-19
3.56481e-17
7.63104e-12
1.02963e-17
-1.89074e-17
7.63106e-12
1.57183e-17
-1.70627e-17
7.63103e-12
2.31566e-18
1.2425e-17
7.63103e-12
2.83975e-18
-4.86723e-17
7.63101e-12
1.78028e-17
7.00592e-18
7.63105e-12
-1.64902e-18
-7.86574e-17
7.63097e-12
2.2371e-17
7.57286e-17
7.63113e-12
1.39829e-17
-1.48898e-16
7.63098e-12
-1.62488e-17
2.06693e-16
7.63121e-12
-5.58451e-18
-1.77198e-16
7.63099e-12
-1.6605e-17
2.54846e-16
7.63128e-12
-9.1635e-19
-1.9039e-16
-5.66498e-17
2.4938e-16
7.69024e-12
-5.5691e-12
1.15913e-11
7.02531e-12
-4.34616e-13
8.63601e-13
7.31174e-12
1.93183e-13
-3.7468e-13
7.19641e-12
-7.80389e-14
1.52878e-13
7.25701e-12
4.16187e-14
-8.01872e-14
7.22685e-12
-2.15471e-14
4.0676e-14
7.24052e-12
1.07744e-14
-1.9617e-14
7.23487e-12
-4.88095e-15
8.37659e-15
7.23715e-12
2.10197e-15
-3.3536e-15
7.23637e-12
-8.2494e-16
1.14343e-15
7.23664e-12
3.19199e-16
-3.93068e-16
7.23657e-12
-9.07252e-17
1.0937e-16
7.23662e-12
5.73135e-17
-8.3198e-17
7.23651e-12
-4.32733e-17
9.57125e-17
7.23659e-12
4.05367e-17
-9.04251e-17
7.23654e-12
-2.27249e-17
2.75877e-17
7.23659e-12
3.07372e-17
-4.41064e-17
7.23654e-12
-2.42197e-17
4.21612e-17
7.23659e-12
2.79435e-17
-4.25332e-17
7.23658e-12
-1.2671e-17
2.76474e-17
7.23658e-12
8.16167e-18
-3.09838e-17
7.23655e-12
9.81463e-20
1.83209e-17
7.23658e-12
-1.67348e-18
-4.34764e-17
7.23655e-12
3.73809e-18
3.77849e-17
7.23657e-12
8.46196e-19
-1.88768e-17
7.2366e-12
2.17728e-17
-1.57683e-17
7.23656e-12
-5.93373e-18
1.78894e-17
7.23657e-12
2.10483e-17
-4.13598e-17
7.23655e-12
1.03062e-17
1.28731e-17
7.23659e-12
1.57439e-17
-7.06294e-17
7.23651e-12
4.34465e-18
8.47489e-17
7.23668e-12
3.65026e-17
-1.47912e-16
7.23652e-12
-4.63948e-17
1.95041e-16
7.23674e-12
1.92631e-17
-1.91196e-16
7.23652e-12
-5.28466e-17
2.55284e-16
7.23681e-12
1.30554e-17
-2.04677e-16
-7.44706e-17
2.42107e-16
6.90302e-12
-7.28664e-12
1.14845e-11
6.14984e-12
-5.30717e-13
8.49325e-13
6.46784e-12
2.38861e-13
-3.63631e-13
6.34038e-12
-1.03066e-13
1.52391e-13
6.40752e-12
5.39067e-14
-7.92755e-14
6.37389e-12
-2.7581e-14
3.9963e-14
6.38941e-12
1.35992e-14
-1.91808e-14
6.38289e-12
-6.16326e-15
8.24738e-15
6.38556e-12
2.67687e-15
-3.31379e-15
6.38462e-12
-1.06669e-15
1.16077e-15
6.38495e-12
4.20999e-16
-4.01122e-16
6.38486e-12
-1.37889e-16
1.25549e-16
6.38493e-12
7.58581e-17
-8.75332e-17
6.38482e-12
-5.92502e-17
9.73081e-17
6.3849e-12
4.94669e-17
-8.96727e-17
6.38485e-12
-2.63855e-17
3.24381e-17
6.3849e-12
3.20585e-17
-4.50576e-17
6.38485e-12
-2.69968e-17
4.50756e-17
6.3849e-12
2.82556e-17
-4.30151e-17
6.38489e-12
-1.31467e-17
3.04832e-17
6.38489e-12
9.25067e-18
-3.37295e-17
6.38486e-12
-3.57915e-18
2.57018e-17
6.38489e-12
6.22669e-18
-4.87037e-17
6.38487e-12
-1.68287e-18
4.38205e-17
6.38488e-12
4.6145e-19
-2.51902e-17
6.38491e-12
1.8433e-17
-8.42549e-18
6.38488e-12
-1.04776e-17
1.24171e-17
6.38489e-12
2.40287e-17
-3.38637e-17
6.38488e-12
-4.45313e-19
1.25961e-17
6.38493e-12
2.86367e-17
-6.97947e-17
6.38485e-12
-2.12439e-17
8.63852e-17
6.38502e-12
6.49569e-17
-1.52713e-16
6.38485e-12
-7.94207e-17
2.02204e-16
6.38507e-12
6.50628e-17
-2.01514e-16
6.38484e-12
-9.55263e-17
2.61257e-16
6.38511e-12
6.83684e-17
-2.28841e-16
-1.08957e-16
2.61267e-16
5.50777e-12
-6.86083e-12
1.07364e-11
4.64017e-12
-4.059e-13
7.42822e-13
5.01371e-12
1.88388e-13
-3.23012e-13
4.85658e-12
-8.69794e-14
1.40951e-13
4.93864e-12
4.47149e-14
-7.27139e-14
4.89726e-12
-2.25141e-14
3.65929e-14
4.91689e-12
1.07936e-14
-1.76484e-14
4.90832e-12
-4.87545e-15
7.72804e-15
4.91194e-12
2.13137e-15
-3.15363e-15
4.91057e-12
-8.56839e-16
1.14033e-15
4.91109e-12
3.36553e-16
-3.98506e-16
4.91093e-12
-1.18935e-16
1.31139e-16
4.91103e-12
6.10013e-17
-8.53893e-17
4.91091e-12
-5.90637e-17
8.41247e-17
4.911e-12
4.23918e-17
-7.69194e-17
4.91095e-12
-2.68992e-17
3.30303e-17
4.911e-12
2.4855e-17
-4.07754e-17
4.91095e-12
-2.48868e-17
4.11194e-17
4.911e-12
2.32566e-17
-3.73994e-17
4.91099e-12
-5.40546e-18
2.53601e-17
4.91099e-12
9.12137e-19
-2.74858e-17
4.91097e-12
-1.13458e-17
2.41099e-17
4.91099e-12
9.56745e-18
-4.15436e-17
4.91098e-12
-9.76318e-18
4.23198e-17
4.91099e-12
6.10052e-18
-2.59876e-17
4.91102e-12
1.5908e-17
-1.10477e-17
4.91099e-12
-1.89933e-17
1.51983e-17
4.91101e-12
9.09483e-18
-2.58459e-17
4.911e-12
-1.06599e-17
1.26384e-17
4.91105e-12
2.39785e-17
-5.83062e-17
4.91098e-12
-3.90079e-17
7.62153e-17
4.91114e-12
7.58793e-17
-1.31289e-16
4.91097e-12
-7.82766e-17
1.73864e-16
4.91117e-12
9.81615e-17
-1.76555e-16
4.91095e-12
-1.02367e-16
2.2385e-16
4.91119e-12
1.21275e-16
-2.0396e-16
-1.09265e-16
2.31203e-16
2.94833e-12
6.86084e-12
2.13652e-12
4.05913e-13
2.51329e-12
-1.88364e-13
2.33932e-12
8.69722e-14
2.42873e-12
-4.46697e-14
2.38361e-12
2.2656e-14
2.40543e-12
-1.11782e-14
2.39557e-12
5.06992e-15
2.39985e-12
-2.16359e-15
2.39814e-12
8.4915e-16
2.39881e-12
-3.28292e-16
2.39857e-12
1.149e-16
2.3987e-12
-6.16755e-17
2.39858e-12
4.72634e-17
2.39867e-12
-4.13814e-17
2.39862e-12
1.77843e-17
2.39867e-12
-2.13386e-17
2.39862e-12
1.86776e-17
2.39866e-12
-1.71777e-17
2.39865e-12
1.60516e-17
2.39866e-12
-1.74084e-17
2.39864e-12
6.81352e-18
2.39867e-12
-1.82155e-17
2.39865e-12
9.52052e-18
2.39865e-12
-4.26286e-19
2.39867e-12
7.37403e-19
2.39865e-12
-3.24432e-19
2.39868e-12
-2.09146e-17
2.39866e-12
5.83658e-18
2.39871e-12
-3.02195e-17
2.39864e-12
3.21739e-17
2.39878e-12
-5.83884e-17
2.39862e-12
8.22337e-17
2.3988e-12
-7.30848e-17
2.39859e-12
1.01602e-16
2.39881e-12
-7.75421e-17
1.03134e-16
5.50777e-12
1.07364e-11
7.28666e-12
4.64017e-12
7.42824e-13
5.30711e-13
5.01371e-12
-3.23077e-13
-2.3885e-13
4.85657e-12
1.40971e-13
1.03096e-13
4.93863e-12
-7.27533e-14
-5.38854e-14
4.89725e-12
3.66501e-14
2.77757e-14
4.91688e-12
-1.76023e-14
-1.39356e-14
4.90832e-12
7.70233e-15
6.2834e-15
4.91194e-12
-3.15393e-15
-2.71526e-15
4.91057e-12
1.14209e-15
1.05189e-15
4.91109e-12
-3.98821e-16
-4.20806e-16
4.91093e-12
1.37173e-16
1.41836e-16
4.91103e-12
-8.32818e-17
-7.17921e-17
4.91091e-12
8.3927e-17
5.4267e-17
4.911e-12
-7.59418e-17
-5.15122e-17
4.91095e-12
3.04953e-17
4.71105e-18
4.911e-12
-3.94762e-17
-1.58527e-17
4.91095e-12
4.11962e-17
8.67083e-18
4.911e-12
-4.32107e-17
-8.22806e-18
4.91099e-12
2.35609e-17
1.29616e-17
4.91099e-12
-2.4298e-17
-1.71295e-17
4.91097e-12
2.67012e-17
-1.39337e-17
4.91099e-12
-2.82303e-17
-1.52052e-17
4.91098e-12
3.94169e-17
-3.52128e-18
4.91099e-12
-3.51217e-17
1.88039e-17
4.91102e-12
-2.51592e-17
-1.87207e-18
4.91099e-12
1.82352e-17
1.78049e-18
4.91101e-12
-1.93753e-17
-4.90033e-17
4.911e-12
1.08115e-17
1.04001e-17
4.91105e-12
-6.25693e-17
-4.9862e-17
4.91098e-12
7.58769e-17
3.58585e-17
4.91114e-12
-1.3668e-16
-5.78699e-17
4.91097e-12
1.80615e-16
9.64201e-17
4.91117e-12
-1.77756e-16
-5.71949e-17
4.91094e-12
2.27191e-16
1.06019e-16
4.91119e-12
-2.08633e-16
-3.30633e-17
2.39785e-16
7.89121e-17
1.17368e-11
1.3203e-11
1.3203e-11
1.0981e-11
1.1208e-12
1.12081e-12
1.1252e-11
-4.58662e-13
-4.58569e-13
1.11704e-11
1.81774e-13
1.81703e-13
1.12182e-11
-9.65399e-14
-9.64503e-14
1.11927e-11
4.99575e-14
4.98446e-14
1.12055e-11
-2.51036e-14
-2.51134e-14
1.11992e-11
1.14086e-14
1.1413e-14
1.12025e-11
-4.96514e-15
-4.93779e-15
1.12009e-11
1.95342e-15
1.92912e-15
1.12017e-11
-7.7808e-16
-7.68972e-16
1.12014e-11
2.90069e-16
2.70782e-16
1.12015e-11
-1.33693e-16
-1.39554e-16
1.12014e-11
8.89751e-17
9.36716e-17
1.12015e-11
-8.81509e-17
-9.5212e-17
1.12014e-11
-6.85529e-18
7.17147e-19
1.12014e-11
-2.15221e-17
-2.72869e-17
1.12015e-11
1.00094e-17
1.48921e-17
1.12014e-11
-1.62591e-17
-1.59748e-17
1.12015e-11
1.85552e-17
1.98846e-17
1.12014e-11
-2.52769e-17
-2.7034e-17
1.12015e-11
-2.74045e-17
-2.50233e-17
1.12014e-11
3.19769e-19
-9.96314e-18
1.12015e-11
-5.66719e-18
2.97928e-18
1.12014e-11
1.01029e-17
7.99483e-18
1.12015e-11
-3.46754e-17
-3.01799e-17
1.12014e-11
7.67966e-18
8.12259e-18
1.12015e-11
-8.12009e-17
-8.0992e-17
1.12015e-11
1.21152e-17
8.89988e-18
1.12015e-11
-1.0455e-16
-9.68508e-17
1.12015e-11
5.87365e-17
5.16351e-17
1.12016e-11
-1.04838e-16
-1.00715e-16
1.12016e-11
1.93288e-16
1.875e-16
1.12015e-11
-8.14503e-17
-7.72313e-17
1.12016e-11
1.88543e-16
1.8547e-16
1.12015e-11
-4.43132e-17
-4.38985e-17
1.6646e-16
1.6342e-16
1.55029e-11
1.08455e-11
1.50091e-11
1.50942e-11
1.00723e-12
1.37173e-12
1.521e-11
-3.9542e-13
-5.42709e-13
1.52002e-11
1.43026e-13
2.00765e-13
1.52113e-11
-7.80413e-14
-1.08561e-13
1.52049e-11
4.09824e-14
5.64145e-14
1.52076e-11
-2.08172e-14
-2.84313e-14
1.52063e-11
9.37876e-15
1.27312e-14
1.52073e-11
-4.0941e-15
-5.46449e-15
1.52067e-11
1.57622e-15
2.09038e-15
1.52071e-11
-6.35223e-16
-8.36272e-16
1.5207e-11
2.3887e-16
2.83055e-16
1.5207e-11
-1.0192e-16
-1.5021e-16
1.52069e-11
6.40547e-17
1.05915e-16
1.52069e-11
-7.2232e-17
-1.10352e-16
1.52069e-11
-3.25639e-17
-7.40447e-18
1.52069e-11
-1.16858e-18
-3.02942e-17
1.52069e-11
-1.21356e-17
1.28603e-17
1.52069e-11
-7.99317e-19
-1.4877e-17
1.5207e-11
8.14578e-18
2.55706e-17
1.52069e-11
-1.94209e-17
-3.55335e-17
1.5207e-11
-4.55002e-17
-3.79141e-17
1.52069e-11
2.07009e-17
-1.8928e-17
1.5207e-11
-2.20008e-17
-3.84808e-18
1.52069e-11
1.84044e-17
2.3473e-17
1.5207e-11
-4.29701e-17
-2.37246e-17
1.52069e-11
2.54606e-18
3.53568e-18
1.52069e-11
-8.82661e-17
-1.08841e-16
1.52069e-11
1.11681e-17
8.80792e-18
1.52069e-11
-1.10096e-16
-1.15602e-16
1.5207e-11
4.81002e-17
5.77322e-17
1.5207e-11
-7.66099e-17
-1.12886e-16
1.5207e-11
1.73177e-16
2.15563e-16
1.5207e-11
-3.2612e-17
-7.99571e-17
1.52071e-11
1.51055e-16
2.16675e-16
1.52071e-11
2.95072e-17
-2.47463e-17
1.04405e-16
1.75595e-16
1.77036e-11
5.96634e-12
1.54368e-11
1.75587e-11
5.78431e-13
1.43744e-12
1.75819e-11
-2.22341e-13
-5.71002e-13
1.76011e-11
7.55032e-14
2.01019e-13
1.75958e-11
-4.2084e-14
-1.10502e-13
1.75983e-11
2.25126e-14
5.77219e-14
1.75963e-11
-1.15165e-14
-2.91695e-14
1.75971e-11
5.09173e-15
1.2966e-14
1.75972e-11
-2.23841e-15
-5.53672e-15
1.75969e-11
8.19186e-16
2.09039e-15
1.75972e-11
-3.34484e-16
-8.33544e-16
1.75971e-11
1.39172e-16
2.71873e-16
1.75971e-11
-4.45189e-17
-1.48147e-16
1.7597e-11
2.79642e-17
1.08065e-16
1.7597e-11
-3.89944e-17
-1.16493e-16
1.7597e-11
-4.67689e-17
-1.47651e-17
1.7597e-11
1.90262e-17
-3.02358e-17
1.7597e-11
-2.74115e-17
9.93576e-18
1.7597e-11
1.09792e-17
-1.27645e-17
1.75971e-11
-3.87653e-18
2.64336e-17
1.7597e-11
-8.1033e-18
-3.77044e-17
1.7597e-11
-4.06364e-17
-4.87334e-17
1.7597e-11
3.53795e-17
-1.90162e-17
1.7597e-11
-2.48039e-17
-1.03391e-17
1.7597e-11
1.30408e-17
3.16448e-17
1.7597e-11
-4.32999e-17
-2.48478e-17
1.7597e-11
3.31304e-18
-7.47847e-20
1.7597e-11
-5.94325e-17
-1.25647e-16
1.7597e-11
1.58198e-17
3.5755e-18
1.75969e-11
-8.51783e-17
-1.24622e-16
1.7597e-11
4.35677e-17
4.9642e-17
1.7597e-11
-4.20852e-17
-1.12135e-16
1.75971e-11
1.17149e-16
2.24301e-16
1.7597e-11
-1.25617e-17
-6.13815e-17
1.75971e-11
9.76521e-17
2.18467e-16
1.75972e-11
4.57419e-17
6.15697e-18
3.05085e-17
1.72642e-16
1.87225e-11
6.54913e-17
1.54916e-11
1.87176e-11
-2.25075e-17
1.43727e-12
1.86975e-11
-2.44848e-16
-5.78609e-13
1.87258e-11
1.32313e-16
1.9854e-13
1.87144e-11
-7.38742e-17
-1.10119e-13
1.87202e-11
5.49715e-16
5.76512e-14
1.87164e-11
-3.98887e-16
-2.91787e-14
1.8718e-11
8.32591e-17
1.29319e-14
1.87178e-11
-8.41894e-17
-5.50267e-15
1.87177e-11
-2.09069e-17
2.06832e-15
1.87178e-11
2.29487e-18
-8.20684e-16
1.87178e-11
3.78025e-17
2.63737e-16
1.87178e-11
1.69954e-17
-1.45996e-16
1.87177e-11
-1.2452e-17
1.09096e-16
1.87177e-11
1.66843e-18
-1.20012e-16
1.87177e-11
-5.21332e-17
-1.77194e-17
1.87177e-11
3.75118e-17
-3.05282e-17
1.87177e-11
-3.72781e-17
9.12982e-18
1.87177e-11
2.13961e-17
-1.21124e-17
1.87177e-11
-1.39937e-17
2.72891e-17
1.87177e-11
3.52313e-18
-3.92578e-17
1.87177e-11
-2.29578e-17
-5.30351e-17
1.87176e-11
4.28205e-17
-1.864e-17
1.87177e-11
-1.7744e-17
-1.25696e-17
1.87176e-11
-6.89908e-19
3.31785e-17
1.87177e-11
-3.51654e-17
-2.55571e-17
1.87176e-11
4.15985e-18
-4.60433e-18
1.87176e-11
-1.42679e-17
-1.32497e-16
1.87176e-11
2.21666e-17
-1.55829e-18
1.87176e-11
-4.76622e-17
-1.28533e-16
1.87176e-11
3.96141e-17
4.19609e-17
1.87176e-11
-5.46875e-18
-1.11728e-16
1.87177e-11
4.94234e-17
2.30003e-16
1.87177e-11
-4.31639e-18
-4.90625e-17
1.87178e-11
3.59306e-17
2.1759e-16
1.87179e-11
3.17821e-17
2.05861e-17
-3.829e-17
1.76912e-16
1.87225e-11
-5.96621e-12
1.54916e-11
1.87176e-11
-5.78467e-13
1.43727e-12
1.86975e-11
2.21885e-13
-5.78606e-13
1.87258e-11
-7.52657e-14
1.98537e-13
1.87144e-11
4.19581e-14
-1.10114e-13
1.87203e-11
-2.1462e-14
5.76253e-14
1.87164e-11
1.07101e-14
-2.91671e-14
1.8718e-11
-4.90067e-15
1.29361e-14
1.87178e-11
2.07395e-15
-5.50073e-15
1.87177e-11
-8.6029e-16
2.07081e-15
1.87178e-11
3.41765e-16
-8.19522e-16
1.87178e-11
-6.94571e-17
2.62948e-16
1.87178e-11
7.59459e-17
-1.46704e-16
1.87177e-11
-5.41857e-17
1.09028e-16
1.87177e-11
4.31604e-17
-1.1991e-16
1.87177e-11
-5.22282e-17
-1.49409e-17
1.87177e-11
5.11835e-17
-3.23546e-17
1.87177e-11
-4.27086e-17
1.07928e-17
1.87177e-11
2.94339e-17
-1.35951e-17
1.87177e-11
-2.11876e-17
2.79088e-17
1.87177e-11
1.31418e-17
-3.94467e-17
1.87177e-11
-2.66744e-18
-5.07711e-17
1.87176e-11
4.36931e-17
-1.7723e-17
1.87177e-11
-6.42627e-18
-1.19795e-17
1.87176e-11
-1.57005e-17
3.1853e-17
1.87177e-11
-2.22961e-17
-2.62389e-17
1.87176e-11
4.44534e-18
-5.12105e-18
1.87176e-11
3.1937e-17
-1.29079e-16
1.87176e-11
2.52042e-17
-2.11932e-18
1.87176e-11
-4.27939e-18
-1.24191e-16
1.87176e-11
3.00374e-17
4.08993e-17
1.87176e-11
3.51636e-17
-1.10435e-16
1.87177e-11
-2.56305e-17
2.25495e-16
1.87177e-11
8.03102e-18
-4.97892e-17
1.87178e-11
-3.15446e-17
2.15624e-16
1.87179e-11
2.05578e-17
1.75793e-17
-1.02556e-16
1.78016e-16
1.77036e-11
-1.08454e-11
1.54368e-11
1.75587e-11
-1.00725e-12
1.43744e-12
1.75819e-11
3.95062e-13
-5.70994e-13
1.76011e-11
-1.42864e-13
2.0101e-13
1.75958e-11
7.79732e-14
-1.10491e-13
1.75983e-11
-4.00871e-14
5.76441e-14
1.75963e-11
2.00133e-14
-2.9131e-14
1.75971e-11
-9.1311e-15
1.29772e-14
1.75972e-11
3.94528e-15
-5.53138e-15
1.75969e-11
-1.61344e-15
2.09859e-15
1.75972e-11
6.49632e-16
-8.30219e-16
1.75971e-11
-1.84898e-16
2.70321e-16
1.75971e-11
1.26475e-16
-1.50056e-16
1.7597e-11
-9.11046e-17
1.086e-16
1.7597e-11
7.64671e-17
-1.16902e-16
1.7597e-11
-5.13121e-17
-7.18304e-18
1.7597e-11
5.79674e-17
-3.53008e-17
1.7597e-11
-4.52815e-17
1.47716e-17
1.7597e-11
3.44047e-17
-1.68752e-17
1.75971e-11
-2.50635e-17
2.82842e-17
1.7597e-11
1.89981e-17
-3.84685e-17
1.7597e-11
9.59191e-18
-4.24897e-17
1.7597e-11
4.00631e-17
-1.6909e-17
1.7597e-11
1.93139e-18
-8.47934e-18
1.7597e-11
-2.42741e-17
2.7685e-17
1.7597e-11
-9.13448e-18
-2.6635e-17
1.7597e-11
2.75733e-18
-2.17592e-18
1.7597e-11
6.30398e-17
-1.16779e-16
1.7597e-11
2.03244e-17
1.37354e-18
1.75969e-11
3.54271e-17
-1.13829e-16
1.7597e-11
9.53397e-18
4.58388e-17
1.7597e-11
7.80997e-17
-1.09512e-16
1.75971e-11
-9.87306e-17
2.14094e-16
1.7597e-11
3.85422e-17
-6.27817e-17
1.75971e-11
-9.94907e-17
2.13687e-16
1.75972e-11
4.1177e-17
-2.54843e-18
-1.6201e-16
1.7763e-16
1.55029e-11
-1.3203e-11
1.50091e-11
1.50942e-11
-1.12079e-12
1.37173e-12
1.521e-11
4.58455e-13
-5.42695e-13
1.52002e-11
-1.81718e-13
2.00747e-13
1.52113e-11
9.65569e-14
-1.08543e-13
1.5205e-11
-4.93023e-14
5.62986e-14
1.52076e-11
2.42847e-14
-2.83686e-14
1.52063e-11
-1.10624e-14
1.27458e-14
1.52073e-11
4.84069e-15
-5.45908e-15
1.52067e-11
-1.98019e-15
2.10372e-15
1.52071e-11
8.03756e-16
-8.32082e-16
1.5207e-11
-2.5761e-16
2.81646e-16
1.5207e-11
1.4769e-16
-1.53176e-16
1.52069e-11
-1.19338e-16
1.05912e-16
1.52069e-11
9.2807e-17
-1.10152e-16
1.52069e-11
-5.37055e-17
3.54811e-18
1.52069e-11
5.71116e-17
-3.79195e-17
1.52069e-11
-4.71824e-17
2.03413e-17
1.52069e-11
3.92291e-17
-2.07709e-17
1.5207e-11
-2.0261e-17
2.82991e-17
1.52069e-11
1.33923e-17
-3.69247e-17
1.5207e-11
3.29226e-18
-2.90803e-17
1.52069e-11
3.18217e-17
-1.71717e-17
1.5207e-11
2.08447e-18
-3.03123e-19
1.52069e-11
-2.12556e-17
1.73013e-17
1.5207e-11
5.88618e-18
-2.60084e-17
1.52069e-11
-1.21005e-17
-9.36238e-20
1.52069e-11
5.88416e-17
-9.70425e-17
1.52069e-11
1.32929e-18
4.61002e-18
1.52069e-11
5.2052e-17
-1.01456e-16
1.5207e-11
-3.08404e-17
5.07002e-17
1.5207e-11
1.20814e-16
-1.098e-16
1.5207e-11
-1.40983e-16
2.0325e-16
1.5207e-11
1.08901e-16
-8.05787e-17
1.52071e-11
-1.58348e-16
2.10416e-16
1.52071e-11
1.24211e-16
-3.68412e-17
-1.948e-16
1.8602e-16
1.17368e-11
-1.07364e-11
1.3203e-11
1.0981e-11
-7.42804e-13
1.12081e-12
1.1252e-11
3.23035e-13
-4.58544e-13
1.11704e-11
-1.40989e-13
1.81669e-13
1.12182e-11
7.28087e-14
-9.64175e-14
1.11927e-11
-3.64061e-14
4.97395e-14
1.12055e-11
1.71151e-14
-2.50593e-14
1.11992e-11
-7.44371e-15
1.14287e-14
1.12025e-11
3.09555e-15
-4.93871e-15
1.12009e-11
-1.1524e-15
1.93965e-15
1.12017e-11
4.2098e-16
-7.65945e-16
1.12014e-11
-1.30374e-16
2.67525e-16
1.12015e-11
8.5977e-17
-1.43494e-16
1.12014e-11
-1.03826e-16
9.22683e-17
1.12015e-11
7.92964e-17
-9.36841e-17
1.12014e-11
-5.27903e-17
1.30833e-17
1.12014e-11
4.84722e-17
-3.62979e-17
1.12015e-11
-5.17958e-17
2.33042e-17
1.12014e-11
5.05519e-17
-2.22158e-17
1.12015e-11
-1.54308e-17
2.14824e-17
1.12014e-11
1.07287e-17
-2.76458e-17
1.12015e-11
-3.30612e-17
-1.58758e-17
1.12014e-11
3.30276e-17
-1.0283e-17
1.12015e-11
-3.38669e-17
9.51838e-18
1.12014e-11
2.66356e-17
7.41932e-19
1.12015e-11
2.13622e-17
-3.30114e-17
1.12014e-11
-2.57025e-17
6.48836e-18
1.12015e-11
1.11206e-17
-6.84728e-17
1.12015e-11
-1.15375e-17
4.4947e-18
1.12015e-11
4.78904e-17
-7.99762e-17
1.12015e-11
-7.3677e-17
4.35835e-17
1.12016e-11
1.56337e-16
-9.48319e-17
1.12016e-11
-1.67586e-16
1.70302e-16
1.12015e-11
2.03175e-16
-7.65847e-17
1.12016e-11
-2.2273e-16
1.76444e-16
1.12015e-11
2.58086e-16
-5.30385e-17
-2.44141e-16
1.70211e-16
5.50777e-12
7.28666e-12
4.64017e-12
5.30718e-13
5.01371e-12
-2.38851e-13
4.85658e-12
1.03091e-13
4.93864e-12
-5.38856e-14
4.89726e-12
2.76956e-14
4.91689e-12
-1.38957e-14
4.90832e-12
6.30962e-15
4.91194e-12
-2.71218e-15
4.91057e-12
1.0616e-15
4.91109e-12
-4.15521e-16
4.91093e-12
1.40877e-16
4.91103e-12
-7.31779e-17
4.91091e-12
5.33377e-17
4.911e-12
-5.02214e-17
4.91095e-12
1.11051e-17
4.911e-12
-2.06707e-17
4.91095e-12
1.38934e-17
4.911e-12
-1.35516e-17
4.91099e-12
1.61901e-17
4.91099e-12
-1.90317e-17
4.91097e-12
-6.23521e-18
4.91099e-12
-1.24988e-17
4.91098e-12
-1.97431e-18
4.91099e-12
1.30898e-17
4.91102e-12
-4.13531e-18
4.91099e-12
-1.166e-18
4.91101e-12
-3.84162e-17
4.911e-12
5.78297e-18
4.91105e-12
-3.87851e-17
4.91098e-12
2.90111e-17
4.91114e-12
-5.42383e-17
4.91097e-12
8.63342e-17
4.91117e-12
-5.52136e-17
4.91095e-12
9.94326e-17
4.91119e-12
-3.99859e-17
8.90695e-17
6.90302e-12
1.14845e-11
5.5691e-12
6.14984e-12
8.49323e-13
4.34603e-13
6.46784e-12
-3.63659e-13
-1.9319e-13
6.34038e-12
1.5239e-13
7.81119e-14
6.40752e-12
-7.92813e-14
-4.16216e-14
6.37388e-12
4.00516e-14
2.17678e-14
6.38941e-12
-1.92235e-14
-1.11049e-14
6.38289e-12
8.25292e-15
4.97225e-15
6.38555e-12
-3.32138e-15
-2.14329e-15
6.38462e-12
1.15051e-15
8.1116e-16
6.38495e-12
-4.01581e-16
-3.22262e-16
6.38486e-12
1.24062e-16
1.03765e-16
6.38493e-12
-8.68869e-17
-4.90878e-17
6.38482e-12
9.14161e-17
4.06874e-17
6.3849e-12
-8.50219e-17
-4.31347e-17
6.38485e-12
3.00394e-17
-1.02326e-17
6.3849e-12
-4.41462e-17
-3.58098e-18
6.38485e-12
4.3946e-17
-3.98748e-18
6.3849e-12
-4.64795e-17
3.83335e-18
6.38489e-12
3.02148e-17
5.77639e-18
6.38489e-12
-3.32105e-17
-1.22583e-17
6.38486e-12
2.64183e-17
-2.77781e-17
6.38489e-12
-4.08699e-17
-8.50462e-18
6.38487e-12
4.1645e-17
-1.29615e-17
6.38488e-12
-2.91588e-17
2.83705e-17
6.38491e-12
-1.5084e-17
-3.66529e-18
6.38488e-12
1.47897e-17
-7.8125e-19
6.38489e-12
-2.89288e-17
-5.9684e-17
6.38488e-12
1.29183e-17
7.56666e-18
6.38493e-12
-6.98177e-17
-5.34177e-17
6.38485e-12
8.88023e-17
2.22636e-17
6.38502e-12
-1.49336e-16
-4.0047e-17
6.38485e-12
1.98377e-16
8.34208e-17
6.38506e-12
-2.00751e-16
-1.93111e-17
6.38484e-12
2.60628e-16
7.51757e-17
6.38511e-12
-2.22609e-16
1.77091e-17
2.58046e-16
3.87113e-17
1.55029e-11
1.50092e-11
1.08455e-11
1.50942e-11
1.37172e-12
1.00724e-12
1.521e-11
-5.42747e-13
-3.95277e-13
1.52002e-11
2.00794e-13
1.42916e-13
1.52113e-11
-1.08598e-13
-7.79023e-14
1.52049e-11
5.64818e-14
4.08106e-14
1.52076e-11
-2.84376e-14
-2.08432e-14
1.52063e-11
1.2732e-14
9.39457e-15
1.52073e-11
-5.47685e-15
-4.05361e-15
1.52067e-11
2.09267e-15
1.53974e-15
1.52071e-11
-8.39033e-16
-6.20494e-16
1.5207e-11
2.89992e-16
2.09249e-16
1.5207e-11
-1.46717e-16
-1.10927e-16
1.52069e-11
9.98893e-17
6.84218e-17
1.52069e-11
-1.03142e-16
-8.05627e-17
1.52069e-11
-1.45731e-17
-2.08673e-17
1.52069e-11
-2.36126e-17
-1.03371e-17
1.52069e-11
7.59907e-18
-4.40214e-18
1.52069e-11
-1.24279e-17
-6.24122e-19
1.5207e-11
2.16652e-17
1.07709e-17
1.52069e-11
-3.25852e-17
-2.27067e-17
1.5207e-11
-4.29656e-17
-4.15807e-17
1.52069e-11
-1.3569e-17
4.72785e-18
1.5207e-11
-8.62529e-18
-8.3202e-18
1.52069e-11
2.64711e-17
1.47014e-17
1.5207e-11
-2.70324e-17
-3.57381e-17
1.52069e-11
5.78022e-18
2.67105e-18
1.52069e-11
-1.1172e-16
-8.7937e-17
1.52069e-11
1.22371e-17
5.83449e-18
1.52069e-11
-1.26025e-16
-9.8014e-17
1.5207e-11
6.7376e-17
3.64983e-17
1.5207e-11
-1.17419e-16
-6.95977e-17
1.5207e-11
2.2371e-16
1.64031e-16
1.5207e-11
-8.48542e-17
-2.51525e-17
1.52071e-11
2.21632e-16
1.45888e-16
1.52071e-11
-2.58691e-17
3.14423e-17
1.78067e-16
1.02522e-16
2.09855e-11
1.28514e-11
1.28514e-11
2.11338e-11
1.29757e-12
1.29758e-12
2.10178e-11
-4.84711e-13
-4.84651e-13
2.10998e-11
1.59714e-13
1.59666e-13
2.10625e-11
-8.97686e-14
-8.97085e-14
2.10815e-11
4.74746e-14
4.73711e-14
2.10707e-11
-2.41864e-14
-2.41896e-14
2.10759e-11
1.07094e-14
1.07178e-14
2.1074e-11
-4.61573e-15
-4.59756e-15
2.10746e-11
1.71571e-15
1.71172e-15
2.10744e-11
-6.97986e-16
-6.92583e-16
2.10746e-11
2.36431e-16
2.25053e-16
2.10745e-11
-1.13372e-16
-1.18796e-16
2.10744e-11
7.52132e-17
8.11548e-17
2.10744e-11
-8.80656e-17
-9.62265e-17
2.10744e-11
-4.6162e-17
-3.51061e-17
2.10744e-11
1.03718e-18
-9.44865e-18
2.10744e-11
-1.92948e-17
-1.10594e-17
2.10744e-11
9.42198e-18