/*--------------------------------*- C++ -*----------------------------------*\
  =========                 |
  \\      /  F ield         | OpenFOAM: The Open Source CFD Toolbox
   \\    /   O peration     | Website:  https://openfoam.org
    \\  /    A nd           | Version:  13
     \\/     M anipulation  |
\*---------------------------------------------------------------------------*/
FoamFile
{
    format      ascii;
    class       volVectorField;
    location    "29";
    object      U;
}
// * * * * * * * * * * * * * * * * * * * * * * * * * * * * * * * * * * * * * //

dimensions      [0 1 -1 0 0 0 0];

internalField   nonuniform List<vector> 
3700
(
(0.0217787 0.000726382 0.000726383)
(0.0271487 4.35657e-05 4.35657e-05)
(0.0218704 -2.28914e-05 -2.28934e-05)
(0.0250396 1.13824e-05 1.1384e-05)
(0.0234482 -5.791e-06 -5.79301e-06)
(0.0242625 2.92055e-06 2.92257e-06)
(0.023843 -1.44078e-06 -1.44006e-06)
(0.024055 6.71028e-07 6.70603e-07)
(0.0239538 -2.95151e-07 -2.95711e-07)
(0.0240001 1.22656e-07 1.23373e-07)
(0.0239806 -4.89673e-08 -4.92781e-08)
(0.0239885 1.89079e-08 1.93472e-08)
(0.0239859 -8.79953e-09 -8.73877e-09)
(0.0239866 6.138e-09 6.23966e-09)
(0.0239861 -4.87609e-09 -4.94154e-09)
(0.0239865 2.33448e-09 2.30713e-09)
(0.0239864 -2.30397e-09 -2.32118e-09)
(0.0239864 2.09215e-09 2.09799e-09)
(0.0239864 -1.64017e-09 -1.71072e-09)
(0.0239866 1.85763e-09 1.91024e-09)
(0.0239866 -1.87292e-09 -1.88123e-09)
(0.0239865 7.40268e-10 7.94722e-10)
(0.0239865 -2.2396e-09 -2.07951e-09)
(0.0239866 9.94288e-10 8.45722e-10)
(0.0239864 2.38488e-10 2.46691e-10)
(0.0239868 6.06277e-10 5.40255e-10)
(0.0239865 1.52525e-11 -1.54078e-11)
(0.0239868 -2.48903e-09 -2.42656e-09)
(0.0239864 1.32003e-09 1.35639e-09)
(0.0239871 -4.08295e-09 -4.09891e-09)
(0.0239864 4.56686e-09 4.57896e-09)
(0.0239874 -7.50657e-09 -7.5405e-09)
(0.0239867 1.05077e-08 1.05153e-08)
(0.0239874 -9.54099e-09 -9.60984e-09)
(0.0239867 1.21409e-08 1.21386e-08)
(0.0239871 -1.09063e-08 -1.09307e-08)
(0.023987 1.29863e-08 1.28998e-08)
(0.0430074 0.00141962 0.0011444)
(0.0551443 9.42813e-05 8.14604e-05)
(0.0451916 -4.21275e-05 -4.10506e-05)
(0.0510582 1.85777e-05 1.98565e-05)
(0.0481151 -9.625e-06 -1.00439e-05)
(0.0496196 4.90813e-06 4.95106e-06)
(0.0488476 -2.42384e-06 -2.38743e-06)
(0.049235 1.08876e-06 1.10057e-06)
(0.0490506 -4.65538e-07 -4.66921e-07)
(0.049135 1.79414e-07 2.02e-07)
(0.049099 -7.04503e-08 -7.85762e-08)
(0.0491137 2.37315e-08 3.81208e-08)
(0.0491086 -1.29214e-08 -1.62703e-08)
(0.0491101 1.0488e-08 1.35275e-08)
(0.0491093 -9.24993e-09 -1.12548e-08)
(0.0491099 2.46138e-09 2.6871e-09)
(0.0491097 -3.71366e-09 -3.47377e-09)
(0.0491097 3.03025e-09 4.09928e-09)
(0.0491097 -2.83305e-09 -2.80877e-09)
(0.0491099 2.34625e-09 6.93158e-09)
(0.04911 -2.80018e-09 -8.15935e-09)
(0.0491097 -3.10883e-10 3.50515e-09)
(0.0491098 -3.3518e-09 -9.37729e-09)
(0.04911 1.35955e-09 5.04195e-09)
(0.0491095 9.03534e-10 -2.7663e-09)
(0.0491104 -8.23019e-10 7.41491e-09)
(0.0491097 1.02787e-09 -7.24527e-09)
(0.0491103 -6.2599e-09 -6.28518e-09)
(0.0491095 1.76119e-09 5.65736e-10)
(0.0491109 -8.1741e-09 -1.50573e-08)
(0.0491093 7.7018e-09 9.95641e-09)
(0.0491114 -1.31394e-08 -2.23381e-08)
(0.0491098 1.88082e-08 3.64991e-08)
(0.0491113 -1.51764e-08 -2.36731e-08)
(0.04911 2.21021e-08 3.50471e-08)
(0.0491109 -1.46064e-08 -3.24663e-08)
(0.0491107 2.01622e-08 4.63981e-08)
(0.0546805 0.00127806 0.00114174)
(0.0713879 9.73623e-05 8.82546e-05)
(0.0591339 -4.29765e-05 -4.47904e-05)
(0.0661999 1.78393e-05 2.14048e-05)
(0.0626487 -9.41665e-06 -1.08377e-05)
(0.064464 4.88981e-06 5.34659e-06)
(0.0635355 -2.47771e-06 -2.57237e-06)
(0.0639976 1.11089e-06 1.17474e-06)
(0.0637794 -4.76358e-07 -4.98689e-07)
(0.0638784 1.78343e-07 2.13622e-07)
(0.0638364 -7.13293e-08 -8.54079e-08)
(0.0638534 2.13866e-08 4.09939e-08)
(0.0638475 -1.19595e-08 -1.82476e-08)
(0.0638493 8.85847e-09 1.39592e-08)
(0.0638483 -8.98047e-09 -1.13842e-08)
(0.0638489 -5.57819e-10 3.22275e-09)
(0.0638487 -1.73559e-09 -4.31095e-09)
(0.0638486 3.19588e-10 4.5491e-09)
(0.0638487 -1.19381e-10 -3.30945e-09)
(0.0638489 1.21191e-09 7.87152e-09)
(0.0638491 -2.44606e-09 -9.15682e-09)
(0.0638486 -4.67567e-09 4.52141e-09)
(0.0638488 -2.70517e-09 -1.06042e-08)
(0.0638489 -1.15098e-09 5.85651e-09)
(0.0638483 4.85171e-09 -2.97214e-09)
(0.0638495 -7.28436e-10 9.03493e-09)
(0.0638485 8.80535e-10 -7.49808e-09)
(0.0638494 -1.09933e-08 -5.28527e-09)
(0.0638481 1.88986e-09 1.30792e-09)
(0.06385 -1.01571e-08 -1.37698e-08)
(0.0638477 6.30803e-09 1.20002e-08)
(0.0638504 -9.41414e-09 -2.23562e-08)
(0.0638483 1.7186e-08 3.57118e-08)
(0.0638506 -7.59654e-09 -2.71792e-08)
(0.0638488 1.78098e-08 3.76685e-08)
(0.0638501 -1.16947e-09 -3.53228e-08)
(0.0638499 1.06596e-08 4.77556e-08)
(0.0611054 0.000822446 0.00110825)
(0.0807083 6.63469e-05 8.69243e-05)
(0.0673192 -2.91336e-05 -4.51249e-05)
(0.0748935 1.13937e-05 2.14163e-05)
(0.0710753 -6.12721e-06 -1.08718e-05)
(0.0730272 3.22358e-06 5.38159e-06)
(0.0720315 -1.66445e-06 -2.59201e-06)
(0.0725238 7.42417e-07 1.17662e-06)
(0.0722929 -3.16571e-07 -4.99201e-07)
(0.0723969 1.14925e-07 2.11326e-07)
(0.072353 -4.56831e-08 -8.50394e-08)
(0.0723707 1.28716e-08 3.97993e-08)
(0.0723643 -6.81065e-09 -1.8052e-08)
(0.0723663 5.76802e-09 1.37795e-08)
(0.0723652 -6.54976e-09 -1.12532e-08)
(0.0723658 -3.27496e-09 3.42293e-09)
(0.0723657 1.11031e-09 -4.76517e-09)
(0.0723655 -2.13959e-09 4.82755e-09)
(0.0723657 2.51811e-09 -3.64669e-09)
(0.0723658 -4.38997e-10 7.87665e-09)
(0.072366 -1.24388e-09 -8.94755e-09)
(0.0723655 -6.55147e-09 4.57727e-09)
(0.0723656 -1.90475e-09 -1.02935e-08)
(0.0723658 -2.03311e-09 5.39426e-09)
(0.0723651 5.72475e-09 -2.41373e-09)
(0.0723664 -4.20913e-10 8.79326e-09)
(0.0723653 2.49912e-10 -6.95963e-09)
(0.0723663 -1.1763e-08 -4.78893e-09)
(0.0723646 1.51195e-09 1.21896e-09)
(0.0723669 -1.073e-08 -1.20838e-08)
(0.0723642 4.30182e-09 1.13955e-08)
(0.0723672 -6.55289e-09 -2.08283e-08)
(0.0723647 1.50179e-08 3.28106e-08)
(0.0723675 -1.70538e-09 -2.6406e-08)
(0.0723654 1.19191e-08 3.62132e-08)
(0.0723671 5.13487e-09 -3.38014e-08)
(0.0723669 4.29571e-09 4.47836e-08)
(0.0639923 0.000281508 0.0010917)
(0.0850082 2.30446e-05 8.51527e-05)
(0.0711499 -1.01144e-05 -4.50573e-05)
(0.0789039 3.81613e-06 2.13237e-05)
(0.0749863 -2.07106e-06 -1.08377e-05)
(0.0769892 1.107e-06 5.37115e-06)
(0.0759691 -5.87739e-07 -2.59131e-06)
(0.0764715 2.55715e-07 1.17585e-06)
(0.0762368 -1.08585e-07 -4.97678e-07)
(0.076342 3.56158e-08 2.10759e-07)
(0.0762977 -1.4928e-08 -8.42281e-08)
(0.0763155 4.33059e-09 3.95458e-08)
(0.0763091 -1.48328e-09 -1.77926e-08)
(0.0763111 2.01927e-09 1.40048e-08)
(0.07631 -2.48389e-09 -1.17086e-08)
(0.0763105 -4.20295e-09 3.2995e-09)
(0.0763104 3.18848e-09 -4.84252e-09)
(0.0763103 -3.48044e-09 4.98275e-09)
(0.0763104 4.06289e-09 -3.76308e-09)
(0.0763105 -1.64885e-09 8.06025e-09)
(0.0763108 4.17914e-11 -9.10095e-09)
(0.0763102 -5.27987e-09 4.40409e-09)
(0.0763103 -1.49862e-09 -1.01073e-08)
(0.0763105 -1.37578e-09 5.02811e-09)
(0.0763098 4.68589e-09 -2.30866e-09)
(0.0763112 8.04275e-10 8.64137e-09)
(0.0763099 3.64798e-10 -7.51357e-09)
(0.076311 -7.94086e-09 -5.25096e-09)
(0.0763091 2.32483e-09 5.35942e-10)
(0.0763116 -7.74367e-09 -1.2529e-08)
(0.0763086 4.48789e-09 1.02068e-08)
(0.0763119 -3.58334e-09 -2.08591e-08)
(0.0763092 9.26182e-09 3.36463e-08)
(0.0763122 -1.23601e-09 -2.5046e-08)
(0.07631 6.43523e-09 3.59442e-08)
(0.0763118 3.4498e-09 -3.27617e-08)
(0.0763117 -1.43617e-09 4.52458e-08)
(0.0639923 -0.000281503 0.0010917)
(0.0850083 -2.30471e-05 8.51537e-05)
(0.0711499 1.01217e-05 -4.50593e-05)
(0.078904 -3.80584e-06 2.13251e-05)
(0.0749863 2.08013e-06 -1.08388e-05)
(0.0769892 -1.07224e-06 5.37279e-06)
(0.0759691 5.29274e-07 -2.59138e-06)
(0.0764715 -2.4725e-07 1.17582e-06)
(0.0762368 1.04756e-07 -4.98169e-07)
(0.076342 -4.49535e-08 2.11222e-07)
(0.0762977 1.57269e-08 -8.44657e-08)
(0.0763155 -3.99485e-09 3.96935e-08)
(0.0763091 3.54059e-09 -1.79009e-08)
(0.0763111 -2.26482e-09 1.39303e-08)
(0.07631 2.31988e-09 -1.16729e-08)
(0.0763105 -4.00473e-09 3.55913e-09)
(0.0763104 4.45841e-09 -5.10487e-09)
(0.0763103 -4.03866e-09 5.19673e-09)
(0.0763104 4.73034e-09 -4.0356e-09)
(0.0763105 -2.35442e-09 8.25171e-09)
(0.0763108 1.1538e-09 -9.20981e-09)
(0.0763102 -2.55536e-09 4.68354e-09)
(0.0763103 -1.04289e-09 -9.84331e-09)
(0.0763105 -2.53226e-10 4.92167e-09)
(0.0763098 2.89563e-09 -2.45321e-09)
(0.0763112 2.28493e-09 8.54817e-09)
(0.0763099 8.03985e-10 -7.59477e-09)
(0.076311 -1.95943e-09 -4.7955e-09)
(0.0763091 3.44261e-09 5.23426e-10)
(0.0763116 -2.50188e-09 -1.21004e-08)
(0.0763086 5.01488e-09 1.01818e-08)
(0.0763119 4.41704e-10 -2.06175e-08)
(0.0763092 6.27638e-10 3.31794e-08)
(0.0763122 -2.13024e-09 -2.5207e-08)
(0.07631 2.76144e-10 3.58491e-08)
(0.0763118 -3.75927e-12 -3.28879e-08)
(0.0763117 -8.01575e-09 4.51266e-08)
(0.0611053 -0.000822448 0.00110825)
(0.0807084 -6.635e-05 8.69263e-05)
(0.0673191 2.91419e-05 -4.513e-05)
(0.0748936 -1.13858e-05 2.14198e-05)
(0.0710753 6.13601e-06 -1.0875e-05)
(0.0730273 -3.18996e-06 5.38546e-06)
(0.0720316 1.60249e-06 -2.59264e-06)
(0.0725237 -7.27956e-07 1.17738e-06)
(0.072293 3.11884e-07 -5.00592e-07)
(0.0723969 -1.22664e-07 2.12973e-07)
(0.072353 4.66018e-08 -8.56601e-08)
(0.0723707 -1.24984e-08 4.03778e-08)
(0.0723643 8.51594e-09 -1.83708e-08)
(0.0723663 -6.25447e-09 1.36514e-08)
(0.0723652 6.20919e-09 -1.12971e-08)
(0.0723658 -3.98686e-09 4.14334e-09)
(0.0723657 5.40452e-09 -5.53235e-09)
(0.0723655 -4.31128e-09 5.50409e-09)
(0.0723657 5.09962e-09 -4.43268e-09)
(0.0723658 -2.38766e-09 8.51216e-09)
(0.072366 1.48725e-09 -9.3845e-09)
(0.0723655 -2.89453e-10 5.35946e-09)
(0.0723656 -7.58068e-10 -9.70018e-09)
(0.0723658 7.06527e-10 5.17683e-09)
(0.0723651 8.04411e-10 -2.93875e-09)
(0.0723664 3.8586e-09 8.63748e-09)
(0.0723653 -3.30302e-10 -7.51038e-09)
(0.0723663 2.79462e-09 -3.68088e-09)
(0.0723646 2.85636e-09 8.71511e-10)
(0.0723669 1.58943e-09 -1.11129e-08)
(0.0723642 2.95138e-09 1.08598e-08)
(0.0723672 4.50118e-09 -2.02519e-08)
(0.0723647 -5.94048e-09 3.20283e-08)
(0.0723675 2.80084e-10 -2.63947e-08)
(0.0723654 -6.19902e-09 3.6019e-08)
(0.0723671 -4.75082e-10 -3.39973e-08)
(0.0723669 -1.1883e-08 4.50623e-08)
(0.0546804 -0.00127806 0.00114173)
(0.071388 -9.73643e-05 8.8256e-05)
(0.0591339 4.29849e-05 -4.47967e-05)
(0.0662 -1.78359e-05 2.14095e-05)
(0.0626488 9.42644e-06 -1.08425e-05)
(0.0644641 -4.85501e-06 5.35231e-06)
(0.0635357 2.40978e-06 -2.57559e-06)
(0.0639976 -1.08878e-06 1.17804e-06)
(0.0637795 4.70401e-07 -5.01374e-07)
(0.0638784 -1.8465e-07 2.16834e-07)
(0.0638364 7.2237e-08 -8.64614e-08)
(0.0638534 -2.17558e-08 4.21688e-08)
(0.0638475 1.29454e-08 -1.88537e-08)
(0.0638493 -1.00049e-08 1.40366e-08)
(0.0638483 8.80553e-09 -1.19074e-08)
(0.0638489 -4.68997e-09 4.48868e-09)
(0.0638487 6.10848e-09 -5.7118e-09)
(0.0638487 -4.92352e-09 5.85085e-09)
(0.0638487 5.4685e-09 -4.57306e-09)
(0.0638489 -2.33536e-09 9.03877e-09)
(0.0638491 1.52755e-09 -1.00833e-08)
(0.0638486 -1.40514e-10 5.75926e-09)
(0.0638488 3.07246e-10 -1.0197e-08)
(0.0638489 3.04098e-10 5.87414e-09)
(0.0638483 -9.08181e-11 -4.0898e-09)
(0.0638495 4.26415e-09 9.17235e-09)
(0.0638485 -2.02801e-09 -9.07915e-09)
(0.0638494 4.58504e-09 -3.68628e-09)
(0.0638481 7.66346e-10 -1.93891e-10)
(0.0638501 4.33564e-09 -1.19749e-08)
(0.0638478 -1.94772e-09 9.55201e-09)
(0.0638505 9.89771e-09 -2.08591e-08)
(0.0638483 -1.20254e-08 3.45789e-08)
(0.0638506 8.38859e-09 -2.55802e-08)
(0.0638488 -1.45544e-08 3.69029e-08)
(0.0638502 7.60681e-09 -3.47795e-08)
(0.0638499 -1.71668e-08 4.88581e-08)
(0.0430073 -0.00141962 0.00114439)
(0.0551444 -9.42805e-05 8.14608e-05)
(0.0451916 4.21321e-05 -4.10558e-05)
(0.0510582 -1.85787e-05 1.98581e-05)
(0.0481151 9.63389e-06 -1.00439e-05)
(0.0496197 -4.88025e-06 4.96911e-06)
(0.0488477 2.36227e-06 -2.402e-06)
(0.049235 -1.06211e-06 1.10498e-06)
(0.0490507 4.60276e-07 -4.72127e-07)
(0.049135 -1.83139e-07 2.03368e-07)
(0.049099 7.18961e-08 -8.03259e-08)
(0.0491137 -2.44473e-08 3.81996e-08)
(0.0491086 1.32344e-08 -1.71918e-08)
(0.0491101 -1.21714e-08 1.27942e-08)
(0.0491093 9.36244e-09 -1.09825e-08)
(0.0491099 -5.31409e-09 4.40038e-09)
(0.0491097 5.63127e-09 -5.23259e-09)
(0.0491097 -5.28674e-09 5.36259e-09)
(0.0491097 5.14663e-09 -4.21445e-09)
(0.0491099 -1.8199e-09 7.7507e-09)
(0.04911 1.04788e-09 -8.6757e-09)
(0.0491097 -1.75116e-09 4.93055e-09)
(0.0491098 2.12535e-09 -8.75848e-09)
(0.04911 -1.58436e-09 5.31104e-09)
(0.0491095 9.37388e-10 -3.84336e-09)
(0.0491104 3.08526e-09 7.31063e-09)
(0.0491097 -2.83598e-09 -7.7129e-09)
(0.0491103 3.21842e-09 -3.5652e-09)
(0.0491095 -1.11684e-09 -3.67117e-10)
(0.0491109 5.59094e-09 -1.08943e-08)
(0.0491093 -6.47279e-09 8.05895e-09)
(0.0491114 1.50806e-08 -1.87413e-08)
(0.0491098 -1.6883e-08 3.11876e-08)
(0.0491114 1.76494e-08 -2.22913e-08)
(0.04911 -2.10539e-08 3.26835e-08)
(0.049111 2.10861e-08 -3.04933e-08)
(0.0491107 -2.33324e-08 4.36964e-08)
(0.0217787 -0.000726383 0.000726384)
(0.0271487 -4.35649e-05 4.35663e-05)
(0.0218704 2.28959e-05 -2.28932e-05)
(0.0250396 -1.13841e-05 1.13831e-05)
(0.0234482 5.79551e-06 -5.79115e-06)
(0.0242625 -2.91399e-06 2.92795e-06)
(0.0238431 1.41516e-06 -1.45352e-06)
(0.024055 -6.58415e-07 6.77874e-07)
(0.0239538 2.9418e-07 -2.97046e-07)
(0.0240001 -1.24061e-07 1.23322e-07)
(0.0239806 4.97839e-08 -4.90484e-08)
(0.0239885 -1.95664e-08 1.90351e-08)
(0.0239859 8.80655e-09 -8.9425e-09)
(0.0239866 -6.81845e-09 5.65915e-09)
(0.0239861 4.8223e-09 -4.75654e-09)
(0.0239865 -3.15733e-09 2.43925e-09)
(0.0239864 2.77799e-09 -2.58159e-09)
(0.0239864 -2.70231e-09 2.22941e-09)
(0.0239864 2.33437e-09 -1.93838e-09)
(0.0239866 -1.15337e-09 2.37953e-09)
(0.0239866 6.73176e-10 -2.4728e-09)
(0.0239865 -1.35838e-09 1.04428e-09)
(0.0239865 1.2406e-09 -2.141e-09)
(0.0239866 -1.05136e-09 9.73316e-10)
(0.0239864 5.37379e-10 -4.91847e-11)
(0.0239868 9.89304e-10 8.10554e-10)
(0.0239865 -1.49186e-09 -7.40953e-10)
(0.0239868 1.14074e-09 -2.24403e-09)
(0.0239864 -1.5937e-09 8.40036e-10)
(0.0239871 3.12422e-09 -3.64807e-09)
(0.0239864 -4.8893e-09 3.80391e-09)
(0.0239874 8.38355e-09 -6.58426e-09)
(0.0239867 -9.59698e-09 9.95342e-09)
(0.0239874 1.12654e-08 -8.45459e-09)
(0.0239867 -1.18986e-08 1.17257e-08)
(0.0239871 1.38691e-08 -9.33528e-09)
(0.023987 -1.31772e-08 1.29354e-08)
(0.0430074 0.00114439 0.00141962)
(0.0551443 8.14605e-05 9.42813e-05)
(0.0451916 -4.10446e-05 -4.21319e-05)
(0.0510582 1.98517e-05 1.85814e-05)
(0.0481151 -1.00379e-05 -9.62958e-06)
(0.0496196 4.94522e-06 4.91186e-06)
(0.0488476 -2.38925e-06 -2.42191e-06)
(0.049235 1.10157e-06 1.08767e-06)
(0.0490506 -4.65286e-07 -4.66665e-07)
(0.049135 1.99795e-07 1.81313e-07)
(0.049099 -7.77187e-08 -7.12075e-08)
(0.0491137 3.67814e-08 2.47789e-08)
(0.0491086 -1.64769e-08 -1.28454e-08)
(0.0491101 1.33275e-08 1.08092e-08)
(0.0491093 -1.11768e-08 -9.50528e-09)
(0.0491099 2.80178e-09 2.53392e-09)
(0.0491097 -3.45064e-09 -3.89315e-09)
(0.0491097 4.10714e-09 3.15508e-09)
(0.0491097 -2.59123e-09 -3.08317e-09)
(0.0491099 6.75699e-09 2.59914e-09)
(0.04911 -8.11395e-09 -2.92114e-09)
(0.0491097 3.32911e-09 -3.96645e-11)
(0.0491098 -9.88273e-09 -3.04606e-09)
(0.04911 5.49325e-09 1.05099e-09)
(0.0491095 -2.77013e-09 8.56537e-10)
(0.0491104 7.60453e-09 -9.14919e-10)
(0.0491097 -7.10562e-09 8.53469e-10)
(0.0491103 -6.47863e-09 -6.02789e-09)
(0.0491095 4.90308e-10 1.75156e-09)
(0.0491109 -1.50568e-08 -7.99532e-09)
(0.0491093 9.96922e-09 7.46136e-09)
(0.0491114 -2.22516e-08 -1.31076e-08)
(0.0491098 3.65092e-08 1.86632e-08)
(0.0491113 -2.35374e-08 -1.51879e-08)
(0.04911 3.50868e-08 2.19781e-08)
(0.0491109 -3.24445e-08 -1.46027e-08)
(0.0491107 4.65072e-08 2.00207e-08)
(0.0948608 0.00244588 0.00244588)
(0.124982 0.000190986 0.000190987)
(0.104021 -7.8946e-05 -7.89327e-05)
(0.115989 3.2444e-05 3.24339e-05)
(0.109987 -1.70338e-05 -1.70211e-05)
(0.113052 8.77553e-06 8.75963e-06)
(0.111487 -4.32519e-06 -4.32625e-06)
(0.112268 1.91786e-06 1.91824e-06)
(0.111895 -8.16749e-07 -8.12778e-07)
(0.112067 2.98608e-07 2.94991e-07)
(0.111992 -1.12343e-07 -1.11015e-07)
(0.112024 3.54384e-08 3.26989e-08)
(0.112012 -1.9984e-08 -2.07808e-08)
(0.112016 1.56141e-08 1.63157e-08)
(0.112014 -1.48215e-08 -1.58331e-08)
(0.112015 4.28083e-09 5.2559e-09)
(0.112014 -7.86591e-09 -8.56754e-09)
(0.112014 6.3592e-09 6.96844e-09)
(0.112014 -8.25806e-09 -8.16083e-09)
(0.112015 2.31651e-09 2.42029e-09)
(0.112015 -1.87194e-09 -2.06384e-09)
(0.112014 9.57767e-10 1.20721e-09)
(0.112015 1.40161e-09 -1.52846e-11)
(0.112015 2.79616e-09 3.97262e-09)
(0.112014 -3.20757e-09 -3.45519e-09)
(0.112015 -1.20877e-08 -1.14933e-08)
(0.112014 8.87463e-09 8.97993e-09)
(0.112016 -5.70361e-09 -5.73087e-09)
(0.112014 3.68034e-09 3.26255e-09)
(0.112017 -9.62472e-09 -8.70109e-09)
(0.112013 1.38908e-08 1.30135e-08)
(0.112017 -1.94084e-08 -1.8908e-08)
(0.112014 2.48591e-08 2.41862e-08)
(0.112017 -2.64046e-08 -2.58739e-08)
(0.112014 3.59753e-08 3.56308e-08)
(0.112017 -2.24317e-08 -2.24414e-08)
(0.112016 2.81001e-08 2.76541e-08)
(0.126104 0.00240408 0.00272475)
(0.169095 0.000216431 0.000228094)
(0.142149 -8.5412e-05 -9.20654e-05)
(0.157028 3.19607e-05 3.57845e-05)
(0.149541 -1.72354e-05 -1.90125e-05)
(0.153364 8.98613e-06 9.8065e-06)
(0.151419 -4.53614e-06 -4.84185e-06)
(0.152379 2.04437e-06 2.11371e-06)
(0.151925 -8.86814e-07 -8.79962e-07)
(0.152133 3.42039e-07 3.10812e-07)
(0.152043 -1.36678e-07 -1.15557e-07)
(0.15208 4.97224e-08 3.21156e-08)
(0.152066 -2.30198e-08 -2.18115e-08)
(0.152071 1.51283e-08 1.91267e-08)
(0.152069 -1.60222e-08 -1.93219e-08)
(0.15207 -3.57093e-09 4.14733e-09)
(0.152069 -2.63886e-09 -9.18699e-09)
(0.152069 9.68072e-11 7.22427e-09)
(0.152069 -1.9601e-09 -8.46778e-09)
(0.152069 2.73303e-09 4.19238e-09)
(0.15207 -4.54426e-09 -4.59444e-09)
(0.152069 -7.20067e-09 -1.53859e-10)
(0.152069 1.55018e-09 -2.91538e-09)
(0.15207 -2.54489e-09 3.76871e-09)
(0.152068 2.99073e-09 -1.62844e-09)
(0.152071 -7.47223e-09 -9.40186e-09)
(0.152068 1.06726e-09 6.83193e-09)
(0.152071 -1.69514e-08 -1.08196e-08)
(0.152067 2.05576e-09 2.75281e-09)
(0.152072 -2.08535e-08 -1.38245e-08)
(0.152067 1.03294e-08 1.45264e-08)
(0.152072 -1.78502e-08 -2.38402e-08)
(0.152067 3.58031e-08 3.35907e-08)
(0.152073 -1.12901e-08 -2.87906e-08)
(0.152069 3.37612e-08 4.47865e-08)
(0.152072 -1.09259e-09 -2.35787e-08)
(0.152071 2.66529e-08 3.55132e-08)
(0.143946 0.00164111 0.00277898)
(0.19527 0.000159138 0.000235982)
(0.165253 -6.09737e-05 -9.6186e-05)
(0.181368 2.10389e-05 3.59678e-05)
(0.173216 -1.16741e-05 -1.93281e-05)
(0.17738 6.20071e-06 1.00135e-05)
(0.175269 -3.17248e-06 -4.96394e-06)
(0.176303 1.41738e-06 2.15444e-06)
(0.175818 -6.19058e-07 -8.91015e-07)
(0.176038 2.31688e-07 3.09563e-07)
(0.175943 -9.34629e-08 -1.13883e-07)
(0.175982 3.45297e-08 2.93861e-08)
(0.175967 -1.38061e-08 -2.11856e-08)
(0.175972 8.88606e-09 1.96003e-08)
(0.17597 -1.104e-08 -2.05619e-08)
(0.17597 -7.91534e-09 2.78947e-09)
(0.17597 1.75715e-09 -8.90277e-09)
(0.17597 -4.03618e-09 6.56895e-09)
(0.17597 1.33312e-09 -7.88947e-09)
(0.17597 -6.30622e-11 4.1532e-09)
(0.175971 -2.20572e-09 -4.92781e-09)
(0.17597 -9.55826e-09 -2.25656e-09)
(0.17597 5.48774e-09 -3.11666e-09)
(0.17597 -5.21275e-09 2.82073e-09)
(0.175969 4.22199e-09 -1.76286e-10)
(0.175972 -8.80537e-09 -9.656e-09)
(0.175969 1.00532e-09 6.24765e-09)
(0.175972 -1.57479e-08 -1.41724e-08)
(0.175967 2.16584e-09 1.9906e-09)
(0.175973 -1.90137e-08 -1.61487e-08)
(0.175966 7.57037e-09 1.3467e-08)
(0.175973 -1.05638e-08 -2.43325e-08)
(0.175967 2.71151e-08 3.61527e-08)
(0.175973 -1.7211e-09 -2.59056e-08)
(0.175969 2.23046e-08 4.55022e-08)
(0.175973 1.1174e-08 -1.85953e-08)
(0.175972 1.04041e-08 3.55219e-08)
(0.152077 0.00057638 0.00278067)
(0.207501 5.75185e-05 0.000234687)
(0.176197 -2.17445e-05 -9.71789e-05)
(0.192738 7.15147e-06 3.56284e-05)
(0.184339 -4.03742e-06 -1.9258e-05)
(0.18863 2.21586e-06 9.99157e-06)
(0.186459 -1.15019e-06 -4.9622e-06)
(0.187517 4.99495e-07 2.14923e-06)
(0.187023 -2.2334e-07 -8.85361e-07)
(0.187245 7.64843e-08 3.06004e-07)
(0.187149 -3.15601e-08 -1.11687e-07)
(0.187189 1.62596e-08 2.79995e-08)
(0.187174 -2.50248e-09 -2.0807e-08)
(0.187179 1.72076e-09 1.98296e-08)
(0.187176 -3.81635e-09 -2.11376e-08)
(0.187177 -9.7358e-09 2.0599e-09)
(0.187177 5.63589e-09 -8.60277e-09)
(0.187177 -6.4052e-09 6.14146e-09)
(0.187177 3.54923e-09 -7.34565e-09)
(0.187177 -2.03493e-09 4.02128e-09)
(0.187178 -1.94858e-10 -5.05291e-09)
(0.187176 -6.84103e-09 -3.31529e-09)
(0.187177 7.10001e-09 -3.43626e-09)
(0.187177 -4.22613e-09 2.6958e-09)
(0.187175 1.80458e-09 2.29303e-10)
(0.187178 -7.44643e-09 -9.60415e-09)
(0.187175 8.31827e-10 5.67721e-09)
(0.187178 -8.23307e-09 -1.58281e-08)
(0.187173 3.46111e-09 1.41296e-09)
(0.187179 -1.35136e-08 -1.74354e-08)
(0.187172 7.57451e-09 1.27185e-08)
(0.187179 -4.87633e-09 -2.47547e-08)
(0.187173 1.67083e-08 3.78482e-08)
(0.18718 -7.11223e-10 -2.42322e-08)
(0.187175 1.25537e-08 4.56861e-08)
(0.187179 8.50336e-09 -1.65144e-08)
(0.187179 -9.11063e-10 3.65623e-08)
(0.152077 -0.000576354 0.00278067)
(0.207501 -5.75254e-05 0.000234687)
(0.176197 2.16589e-05 -9.71764e-05)
(0.192738 -7.10501e-06 3.5627e-05)
(0.184339 4.01371e-06 -1.9256e-05)
(0.18863 -2.0195e-06 9.98591e-06)
(0.186459 1.00409e-06 -4.96006e-06)
(0.187516 -4.69524e-07 2.14893e-06)
(0.187023 1.934e-07 -8.84432e-07)
(0.187245 -8.50172e-08 3.05676e-07)
(0.187149 3.26979e-08 -1.11344e-07)
(0.187189 -2.9331e-09 2.7594e-08)
(0.187174 8.70242e-09 -2.08417e-08)
(0.187179 -6.2529e-09 1.98871e-08)
(0.187176 4.5451e-09 -2.10813e-08)
(0.187177 -9.63649e-09 2.22962e-09)
(0.187177 8.44188e-09 -8.58108e-09)
(0.187177 -7.5489e-09 6.12576e-09)
(0.187177 4.98667e-09 -7.15581e-09)
(0.187177 -3.49205e-09 3.78698e-09)
(0.187178 1.76344e-09 -4.83538e-09)
(0.187176 -2.15445e-09 -3.34001e-09)
(0.187177 7.65959e-09 -3.67517e-09)
(0.187177 -1.93319e-09 2.90866e-09)
(0.187175 -1.44423e-09 3.77309e-10)
(0.187178 -4.95452e-09 -9.565e-09)
(0.187175 1.28115e-09 5.96154e-09)
(0.187178 2.0049e-09 -1.58572e-08)
(0.187173 5.13015e-09 1.59855e-09)
(0.187179 -4.64087e-09 -1.71937e-08)
(0.187172 7.73342e-09 1.29879e-08)
(0.187179 2.36898e-09 -2.48935e-08)
(0.187173 2.04006e-09 3.74993e-08)
(0.18718 -1.45372e-09 -2.46158e-08)
(0.187175 9.91038e-10 4.5563e-08)
(0.187179 2.8823e-09 -1.70815e-08)
(0.187179 -1.33807e-08 3.64332e-08)
(0.143946 -0.00164109 0.00277898)
(0.19527 -0.000159143 0.000235982)
(0.165253 6.08999e-05 -9.61788e-05)
(0.181368 -2.10013e-05 3.59638e-05)
(0.173216 1.16568e-05 -1.93227e-05)
(0.17738 -6.01981e-06 9.99585e-06)
(0.175269 3.02181e-06 -4.95679e-06)
(0.176303 -1.37762e-06 2.15387e-06)
(0.175818 5.89905e-07 -8.883e-07)
(0.176038 -2.39272e-07 3.08961e-07)
(0.175943 9.52847e-08 -1.12845e-07)
(0.175982 -2.30584e-08 2.8405e-08)
(0.175967 1.90259e-08 -2.12386e-08)
(0.175972 -1.36674e-08 1.98327e-08)
(0.17597 1.16932e-08 -2.04929e-08)
(0.17597 -9.31784e-09 3.17089e-09)
(0.17597 1.02928e-08 -8.78048e-09)
(0.17597 -8.05408e-09 6.5194e-09)
(0.17597 6.07103e-09 -7.31509e-09)
(0.17597 -4.05488e-09 3.57895e-09)
(0.175971 2.73513e-09 -4.43815e-09)
(0.17597 1.70523e-09 -2.38463e-09)
(0.17597 6.92848e-09 -3.87595e-09)
(0.17597 4.81508e-10 3.38359e-09)
(0.175969 -4.46307e-09 2.5799e-10)
(0.175972 -1.63192e-09 -9.43954e-09)
(0.175969 2.53788e-10 6.80415e-09)
(0.175972 1.01266e-08 -1.45049e-08)
(0.175967 4.73142e-09 2.41929e-09)
(0.175973 3.31226e-09 -1.59419e-08)
(0.175966 4.84517e-09 1.41332e-08)
(0.175973 9.91393e-09 -2.50396e-08)
(0.175967 -1.11855e-08 3.59368e-08)
(0.175973 1.80659e-09 -2.68918e-08)
(0.175969 -1.10686e-08 4.54439e-08)
(0.175973 1.64867e-09 -2.02649e-08)
(0.175972 -2.29386e-08 3.57845e-08)
(0.126104 -0.00240407 0.00272475)
(0.169096 -0.000216433 0.000228094)
(0.142149 8.53615e-05 -9.20542e-05)
(0.157028 -3.19409e-05 3.57785e-05)
(0.149541 1.72319e-05 -1.90047e-05)
(0.153364 -8.8389e-06 9.77966e-06)
(0.15142 4.37765e-06 -4.8302e-06)
(0.152379 -1.9861e-06 2.11283e-06)
(0.151926 8.60914e-07 -8.764e-07)
(0.152133 -3.48416e-07 3.102e-07)
(0.152043 1.40414e-07 -1.14162e-07)
(0.15208 -4.19403e-08 3.07827e-08)
(0.152066 2.65637e-08 -2.18706e-08)
(0.152071 -2.06203e-08 1.94048e-08)
(0.152069 1.67825e-08 -1.91634e-08)
(0.15207 -9.97467e-09 4.64899e-09)
(0.152069 1.12734e-08 -9.00731e-09)
(0.152069 -9.00846e-09 7.15581e-09)
(0.152069 7.40258e-09 -7.58699e-09)
(0.152069 -4.25157e-09 3.52046e-09)
(0.15207 3.06528e-09 -4.07003e-09)
(0.152069 1.41548e-09 -4.0542e-10)
(0.152069 6.70177e-09 -4.17025e-09)
(0.15207 3.19916e-10 4.46908e-09)
(0.152068 -4.27921e-09 -7.82154e-10)
(0.152071 5.66834e-10 -8.81039e-09)
(0.152068 -1.45866e-09 7.46745e-09)
(0.152071 1.21463e-08 -1.15336e-08)
(0.152067 1.97343e-09 3.51833e-09)
(0.152072 8.96249e-09 -1.39578e-08)
(0.152067 -2.63909e-09 1.57585e-08)
(0.152072 1.99313e-08 -2.51412e-08)
(0.152067 -2.40216e-08 3.38258e-08)
(0.152073 1.50212e-08 -3.04284e-08)
(0.152069 -2.62415e-08 4.50314e-08)
(0.152072 1.61278e-08 -2.60822e-08)
(0.152071 -3.49932e-08 3.61427e-08)
(0.0948605 -0.00244587 0.00244587)
(0.124983 -0.000190982 0.000190986)
(0.104021 7.89068e-05 -7.89147e-05)
(0.115989 -3.24394e-05 3.24249e-05)
(0.109987 1.70372e-05 -1.70104e-05)
(0.113052 -8.66874e-06 8.72634e-06)
(0.111488 4.19551e-06 -4.32007e-06)
(0.112268 -1.85614e-06 1.92273e-06)
(0.111895 7.92585e-07 -8.08671e-07)
(0.112067 -2.99651e-07 2.94184e-07)
(0.111992 1.16199e-07 -1.08885e-07)
(0.112024 -3.01617e-08 3.11361e-08)
(0.112012 2.10594e-08 -2.08039e-08)
(0.112016 -2.14791e-08 1.63145e-08)
(0.112014 1.61736e-08 -1.57332e-08)
(0.112015 -1.09535e-08 5.3616e-09)
(0.112014 1.03847e-08 -8.14816e-09)
(0.112014 -9.48839e-09 6.74736e-09)
(0.112014 8.9021e-09 -6.71413e-09)
(0.112015 -1.29545e-09 2.2086e-09)
(0.112015 -2.15325e-10 -2.31794e-09)
(0.112014 -1.71595e-09 4.43183e-10)
(0.112015 4.99331e-09 -2.63549e-09)
(0.112015 -1.80543e-09 4.95749e-09)
(0.112014 -1.95186e-09 -2.02902e-09)
(0.112016 5.71269e-09 -9.53186e-09)
(0.112014 -8.64223e-09 8.54113e-09)
(0.112016 7.2636e-09 -7.92926e-09)
(0.112014 -3.01571e-09 3.70266e-09)
(0.112017 7.55635e-09 -1.0322e-08)
(0.112013 -1.2224e-08 1.38468e-08)
(0.112017 2.60702e-08 -2.0617e-08)
(0.112014 -2.41935e-08 2.65685e-08)
(0.112017 3.19807e-08 -2.6555e-08)
(0.112014 -3.52099e-08 3.65071e-08)
(0.112017 3.54297e-08 -2.40143e-08)
(0.112016 -3.30328e-08 3.00206e-08)
(0.0430073 -0.00114439 0.00141962)
(0.0551444 -8.1459e-05 9.42822e-05)
(0.0451916 4.10608e-05 -4.21288e-05)
(0.0510582 -1.98559e-05 1.85796e-05)
(0.0481151 1.00482e-05 -9.62648e-06)
(0.0496197 -4.94519e-06 4.90732e-06)
(0.0488477 2.33757e-06 -2.43322e-06)
(0.049235 -1.07404e-06 1.09795e-06)
(0.0490507 4.67691e-07 -4.67217e-07)
(0.049135 -2.0413e-07 1.81628e-07)
(0.049099 8.10219e-08 -7.03548e-08)
(0.0491137 -3.87403e-08 2.41225e-08)
(0.0491086 1.71863e-08 -1.31259e-08)
(0.0491101 -1.45425e-08 1.01561e-08)
(0.0491093 1.09477e-08 -9.22985e-09)
(0.0491099 -5.9221e-09 3.03507e-09)
(0.0491097 5.81508e-09 -4.35212e-09)
(0.0491097 -6.46481e-09 3.52286e-09)
(0.0491097 5.33099e-09 -3.3518e-09)
(0.0491099 -5.35369e-09 3.37834e-09)
(0.04911 5.32496e-09 -3.82521e-09)
(0.0491097 -5.861e-09 5.5806e-10)
(0.0491098 6.79233e-09 -3.44372e-09)
(0.04911 -6.1609e-09 1.27656e-09)
(0.0491095 5.89526e-09 6.75739e-10)
(0.0491104 -3.06893e-09 -1.38826e-10)
(0.0491097 3.50169e-09 -3.24734e-10)
(0.0491103 1.07071e-09 -5.49033e-09)
(0.0491095 -4.90438e-10 1.02987e-09)
(0.0491109 9.73852e-09 -6.92021e-09)
(0.0491093 -9.35995e-09 6.38225e-09)
(0.0491114 2.17175e-08 -1.1939e-08)
(0.0491098 -3.04482e-08 1.75504e-08)
(0.0491114 2.66591e-08 -1.3925e-08)
(0.04911 -3.27452e-08 2.11548e-08)
(0.049111 3.81245e-08 -1.35257e-08)
(0.0491107 -4.46882e-08 2.07865e-08)
(0.0546805 0.00114174 0.00127807)
(0.0713879 8.82547e-05 9.73623e-05)
(0.0591339 -4.4782e-05 -4.29848e-05)
(0.0661999 2.13981e-05 1.78461e-05)
(0.0626487 -1.08294e-05 -9.42505e-06)
(0.064464 5.3379e-06 4.89657e-06)
(0.0635355 -2.57464e-06 -2.47513e-06)
(0.0639976 1.17602e-06 1.10954e-06)
(0.0637794 -4.96209e-07 -4.78462e-07)
(0.0638784 2.10518e-07 1.82035e-07)
(0.0638364 -8.4155e-08 -7.26759e-08)
(0.0638534 3.91214e-08 2.33522e-08)
(0.0638475 -1.85198e-08 -1.18249e-08)
(0.0638493 1.36612e-08 9.22495e-09)
(0.0638483 -1.12555e-08 -9.24306e-09)
(0.0638489 3.33327e-09 -3.84588e-10)
(0.0638487 -4.23158e-09 -2.12388e-09)
(0.0638486 4.53947e-09 5.86076e-10)
(0.0638487 -2.98577e-09 -6.45971e-10)
(0.0638489 7.6152e-09 1.78661e-09)
(0.0638491 -9.0941e-09 -2.76802e-09)
(0.0638486 4.24092e-09 -4.08003e-09)
(0.0638488 -1.13251e-08 -2.14749e-09)
(0.0638489 6.47266e-09 -1.70282e-09)
(0.0638483 -2.95727e-09 4.70281e-09)
(0.0638495 9.29374e-09 -8.3944e-10)
(0.0638485 -7.30709e-09 4.38349e-10)
(0.0638494 -5.62422e-09 -1.04939e-08)
(0.0638481 1.2052e-09 1.7827e-09)
(0.06385 -1.39769e-08 -9.62652e-09)
(0.0638477 1.2098e-08 5.66154e-09)
(0.0638504 -2.23456e-08 -9.21246e-09)
(0.0638483 3.5947e-08 1.67243e-08)
(0.0638506 -2.70589e-08 -7.42375e-09)
(0.0638488 3.785e-08 1.74424e-08)
(0.0638501 -3.53418e-08 -9.82929e-10)
(0.0638499 4.80605e-08 1.06387e-08)
(0.126104 0.00272475 0.00240407)
(0.169095 0.000228093 0.000216433)
(0.142149 -9.20745e-05 -8.53915e-05)
(0.157028 3.57915e-05 3.1945e-05)
(0.149541 -1.90213e-05 -1.72156e-05)
(0.153364 9.8197e-06 8.96097e-06)
(0.151419 -4.84218e-06 -4.53892e-06)
(0.152379 2.11368e-06 2.04593e-06)
(0.151925 -8.82926e-07 -8.80855e-07)
(0.152133 3.12666e-07 3.36939e-07)
(0.152043 -1.16462e-07 -1.34648e-07)
(0.15208 3.39169e-08 4.55139e-08)
(0.152066 -2.11926e-08 -2.43366e-08)
(0.152071 1.82906e-08 1.5993e-08)
(0.152069 -1.82703e-08 -1.74402e-08)
(0.15207 3.16144e-09 -1.83094e-09)
(0.152069 -8.37609e-09 -4.01271e-09)
(0.152069 6.55131e-09 1.25303e-09)
(0.152069 -8.31956e-09 -1.96504e-09)
(0.152069 3.83727e-09 3.14212e-09)
(0.15207 -4.26388e-09 -5.02561e-09)
(0.152069 -6.65157e-10 -6.58039e-09)
(0.152069 -1.85161e-09 -7.53732e-10)
(0.15207 2.86653e-09 -5.94898e-10)
(0.152068 -1.27317e-09 2.45713e-09)
(0.152071 -9.94511e-09 -6.43808e-09)
(0.152068 7.01005e-09 1.08438e-09)
(0.152071 -1.10215e-08 -1.68724e-08)
(0.152067 3.2489e-09 1.2896e-09)
(0.152072 -1.50306e-08 -1.9072e-08)
(0.152067 1.57186e-08 8.62153e-09)
(0.152072 -2.43926e-08 -1.68743e-08)
(0.152067 3.44776e-08 3.44722e-08)