/*--------------------------------*- C++ -*----------------------------------*\
  =========                 |
  \\      /  F ield         | OpenFOAM: The Open Source CFD Toolbox
   \\    /   O peration     | Website:  https://openfoam.org
    \\  /    A nd           | Version:  13
     \\/     M anipulation  |
\*---------------------------------------------------------------------------*/
FoamFile
{
    format      ascii;
    class       surfaceScalarField;
    location    "30";
    object      phi;
}
// * * * * * * * * * * * * * * * * * * * * * * * * * * * * * * * * * * * * * //

dimensions      [0 3 -1 0 0 0 0];

internalField   nonuniform List<scalar> 
10260
(
4.12813e-11
6.27095e-11
6.27095e-11
2.3252e-11
9.01479e-12
9.01469e-12
2.31187e-11
6.62882e-14
6.65216e-14
2.39759e-11
-4.28441e-13
-4.2859e-13
2.39131e-11
3.15852e-14
3.11746e-14
2.39628e-11
-2.47024e-14
-2.44414e-14
2.39907e-11
-1.3653e-14
-1.36621e-14
2.39839e-11
2.87857e-15
2.9521e-15
2.39871e-11
-1.6234e-15
-1.62196e-15
2.39863e-11
3.80705e-16
3.82299e-16
2.39866e-11
-1.77998e-16
-1.68578e-16
2.39863e-11
1.1505e-16
1.081e-16
2.39868e-11
-2.47228e-16
-2.33652e-16
2.39863e-11
1.72986e-16
1.60081e-16
2.39867e-11
-1.51502e-16
-1.32903e-16
2.39863e-11
1.70458e-16
1.50689e-16
2.39867e-11
-1.36081e-16
-1.63742e-16
2.39867e-11
-3.14544e-17
-1.84967e-17
2.39868e-11
7.16303e-17
-6.97841e-17
2.39867e-11
-2.58846e-17
1.19374e-16
2.39868e-11
-5.10527e-17
-1.50646e-16
2.39864e-11
1.15141e-16
2.20471e-16
2.39869e-11
-1.82949e-16
-2.00518e-16
2.39868e-11
1.23645e-16
1.34822e-16
2.39869e-11
-1.4273e-16
-1.83133e-16
2.39864e-11
1.27301e-16
1.81393e-16
2.39867e-11
-9.94537e-17
-1.05005e-16
2.39864e-11
1.06536e-16
1.0382e-16
2.39864e-11
-6.0747e-17
-1.6602e-17
2.39869e-11
-2.60553e-16
-2.84492e-16
2.39862e-11
3.40145e-16
3.31032e-16
2.39878e-11
-7.40858e-16
-7.36918e-16
2.39866e-11
6.18164e-16
6.39247e-16
2.39889e-11
-1.04561e-15
-1.03997e-15
2.39865e-11
1.16768e-15
1.12686e-15
2.39884e-11
-7.89279e-16
-7.77714e-16
1.16472e-15
1.14514e-15
7.01466e-11
6.426e-11
9.50035e-11
4.94153e-11
1.10488e-11
1.86979e-11
4.78098e-11
9.16925e-13
7.53363e-13
4.89311e-11
-6.501e-13
-8.99178e-13
4.90067e-11
-2.29045e-14
-2.11851e-14
4.90701e-11
-4.39935e-14
-4.24286e-14
4.91127e-11
-2.5911e-14
-2.88205e-14
4.91076e-11
1.10576e-15
4.21146e-15
4.91105e-11
-2.00012e-15
-2.73234e-15
4.91097e-11
2.57962e-16
7.21423e-16
4.911e-11
-2.38406e-16
-3.05834e-16
4.91098e-11
4.48762e-17
2.41778e-16
4.91103e-11
-3.78115e-16
-4.88094e-16
4.91098e-11
1.64239e-16
1.29499e-16
4.91102e-11
-1.77884e-16
-1.05136e-16
4.91098e-11
1.79115e-16
3.1519e-16
4.91102e-11
6.03178e-17
-4.87223e-16
4.91103e-11
-2.72255e-16
1.26692e-16
4.91103e-11
8.62472e-16
-7.37251e-16
4.91103e-11
-7.04424e-16
7.96103e-16
4.91104e-11
2.76445e-16
-6.17685e-16
4.911e-11
-4.36422e-16
7.84053e-16
4.91105e-11
-2.56165e-16
-2.58435e-16
4.91105e-11
1.90868e-16
3.3856e-16
4.91105e-11
-6.84937e-17
-6.12148e-16
4.91099e-11
-9.04156e-17
3.76675e-16
4.91102e-11
-3.9521e-18
-2.8284e-16
4.91099e-11
-9.29517e-17
3.16503e-16
4.911e-11
-1.46954e-16
-7.75955e-17
4.91104e-11
-5.22898e-16
-4.74993e-16
4.91096e-11
3.80325e-16
5.34496e-16
4.91115e-11
-9.0732e-16
-1.313e-15
4.91104e-11
7.78876e-16
1.16307e-15
4.91131e-11
-1.02394e-15
-1.88397e-15
4.91104e-11
1.5052e-15
2.00267e-15
4.91123e-11
-4.37847e-16
-1.43436e-15
1.08383e-15
2.39134e-15
8.2731e-11
4.76245e-11
1.00605e-10
6.44484e-11
8.34373e-12
2.09882e-11
6.26487e-11
1.23291e-12
1.48224e-12
6.36176e-11
-5.60065e-13
-1.05842e-12
6.37398e-11
-5.96472e-14
-8.56218e-14
6.3809e-11
-4.89294e-14
-6.25126e-14
6.38517e-11
-2.86399e-14
-3.84245e-14
6.38474e-11
-9.3259e-16
3.61796e-15
6.38499e-11
-1.56719e-15
-3.1281e-15
6.3849e-11
2.4597e-16
7.48988e-16
6.38492e-11
-1.93168e-16
-3.61071e-16
6.38489e-11
2.66051e-17
2.34908e-16
6.38494e-11
-3.54423e-16
-5.93743e-16
6.38489e-11
1.34416e-16
1.86405e-16
6.38493e-11
-1.53016e-16
-1.57124e-16
6.38489e-11
1.3832e-16
3.59734e-16
6.38493e-11
1.96244e-16
-4.15233e-16
6.38494e-11
-3.66879e-16
-1.52645e-17
6.38494e-11
1.23247e-15
-3.38487e-16
6.38495e-11
-1.0952e-15
4.90141e-16
6.38495e-11
5.06761e-16
-4.92103e-16
6.3849e-11
-7.73699e-16
6.24577e-16
6.38495e-11
-1.25394e-16
-4.65893e-16
6.38496e-11
1.16368e-16
4.72284e-16
6.38496e-11
5.82351e-17
-6.49144e-16
6.38489e-11
-2.96304e-16
3.94094e-16
6.38492e-11
6.72416e-17
-2.37061e-16
6.38488e-11
-2.36441e-16
3.32002e-16
6.38489e-11
-1.45481e-16
-1.34388e-16
6.38493e-11
-6.2539e-16
-5.58603e-16
6.38484e-11
3.66995e-16
6.15149e-16
6.38503e-11
-8.02702e-16
-1.57298e-15
6.38493e-11
7.62405e-16
1.2364e-15
6.3852e-11
-7.36e-16
-2.24718e-15
6.38494e-11
1.32745e-15
2.43089e-15
6.38515e-11
-1.17309e-16
-1.49991e-15
6.42385e-16
2.72548e-15
8.86354e-11
2.48349e-11
1.00855e-10
7.26871e-11
4.22628e-12
2.00663e-11
7.13422e-11
8.09937e-13
1.76635e-12
7.21715e-11
-3.07528e-13
-1.08127e-12
7.22679e-11
-4.38256e-14
-1.12318e-13
7.23316e-11
-3.25324e-14
-7.83931e-14
7.23695e-11
-1.9075e-14
-4.59787e-14
7.23648e-11
-1.51565e-15
2.62428e-15
7.23671e-11
-8.73223e-16
-3.21026e-15
7.23661e-11
2.91025e-16
7.91474e-16
7.23663e-11
-1.37459e-16
-3.56283e-16
7.2366e-11
7.60143e-17
2.12529e-16
7.23665e-11
-2.48528e-16
-6.24325e-16
7.23659e-11
1.27072e-16
1.8514e-16
7.23664e-11
-1.24502e-16
-1.54072e-16
7.23659e-11
1.10001e-16
3.48676e-16
7.23663e-11
3.56034e-16
-4.17896e-16
7.23663e-11
-3.99429e-16
-5.56068e-17
7.23664e-11
1.425e-15
-1.7051e-16
7.23664e-11
-1.32358e-15
3.33218e-16
7.23665e-11
6.4313e-16
-3.91228e-16
7.23659e-11
-9.53735e-16
5.0327e-16
7.23664e-11
5.73181e-17
-5.16903e-16
7.23665e-11
7.57323e-17
4.60159e-16
7.23664e-11
1.41912e-16
-6.0432e-16
7.23658e-11
-4.52211e-16
3.59067e-16
7.23661e-11
1.10071e-16
-1.98725e-16
7.23656e-11
-2.88138e-16
2.8382e-16
7.23657e-11
-1.26996e-17
-2.22507e-16
7.2366e-11
-6.06867e-16
-6.01301e-16
7.23651e-11
4.63643e-16
5.35221e-16
7.23669e-11
-5.66646e-16
-1.64633e-15
7.23659e-11
8.07736e-16
1.13527e-15
7.23687e-11
-5.72279e-16
-2.17016e-15
7.23662e-11
8.68263e-16
2.60995e-15
7.23684e-11
-4.81576e-17
-1.3667e-15
1.64762e-16
2.71716e-15
9.10178e-11
-3.78373e-17
1.00518e-10
7.63345e-11
1.21759e-15
1.89089e-11
7.53828e-11
-9.35839e-16
1.76099e-12
7.61601e-11
-8.43469e-16
-1.08329e-12
7.62265e-11
2.94648e-15
-1.13203e-13
7.62814e-11
-8.37237e-16
-8.49852e-14
7.63151e-11
-8.06327e-16
-5.04359e-14
7.63097e-11
-8.41632e-16
2.00737e-15
7.6312e-11
-9.58899e-17
-3.22044e-15
7.6311e-11
2.72213e-16
8.69545e-16
7.63111e-11
-1.06887e-16
-3.37263e-16
7.63108e-11
1.34618e-16
2.24577e-16
7.63113e-11
-9.66072e-17
-6.38565e-16
7.63107e-11
1.10368e-16
1.96347e-16
7.63111e-11
-6.78833e-17
-1.72455e-16
7.63107e-11
9.31407e-17
3.34266e-16
7.6311e-11
4.84683e-16
-3.76814e-16
7.63111e-11
-3.73935e-16
-9.68591e-17
7.63111e-11
1.4435e-15
-7.36678e-18
7.63112e-11
-1.38201e-15
1.76396e-16
7.63112e-11
6.85019e-16
-2.97618e-16
7.63107e-11
-9.83609e-16
3.76318e-16
7.63111e-11
2.39351e-16
-5.38455e-16
7.63112e-11
6.99105e-17
4.51452e-16
7.63112e-11
1.80559e-16
-5.58731e-16
7.63106e-11
-5.50573e-16
3.22773e-16
7.63108e-11
1.51721e-16
-1.91796e-16
7.63103e-11
-2.49887e-16
2.09798e-16
7.63103e-11
1.81672e-16
-2.6681e-16
7.63106e-11
-4.4246e-16
-6.86756e-16
7.63097e-11
5.85017e-16
5.11896e-16
7.63115e-11
-1.9818e-16
-1.72148e-15
7.63105e-11
7.12452e-16
1.24431e-15
7.63133e-11
-4.49459e-16
-2.13241e-15
7.63108e-11
2.52066e-16
2.7072e-15
7.63131e-11
-5.92285e-17
-1.35289e-15
-4.03374e-16
2.79083e-15
9.10178e-11
-2.4835e-11
1.00518e-10
7.63346e-11
-4.224e-12
1.8909e-11
7.53828e-11
-8.11586e-13
1.76068e-12
7.61601e-11
3.06064e-13
-1.08334e-12
7.62264e-11
4.93094e-14
-1.12743e-13
7.62813e-11
3.09287e-14
-8.51569e-14
7.63151e-11
1.76371e-14
-5.05577e-14
7.63097e-11
-1.81431e-16
1.96899e-15
7.6312e-11
7.28773e-16
-3.23646e-15
7.63109e-11
2.04684e-16
9.11299e-16
7.63111e-11
-6.05825e-17
-3.50975e-16
7.63108e-11
1.70859e-16
2.47614e-16
7.63113e-11
6.52319e-17
-6.41052e-16
7.63107e-11
7.11378e-17
2.0674e-16
7.63111e-11
-1.43687e-18
-1.72384e-16
7.63107e-11
5.46522e-17
3.45607e-16
7.6311e-11
5.60199e-16
-3.31549e-16
7.63111e-11
-3.01471e-16
-1.41332e-16
7.63111e-11
1.29092e-15
1.50447e-16
7.63112e-11
-1.26336e-15
1.57741e-17
7.63112e-11
6.33132e-16
-2.06304e-16
7.63107e-11
-8.96111e-16
2.73179e-16
7.63111e-11
3.73889e-16
-5.32099e-16
7.63112e-11
7.55203e-17
4.59415e-16
7.63112e-11
1.75789e-16
-5.17961e-16
7.63106e-11
-5.79416e-16
2.79708e-16
7.63108e-11
1.715e-16
-1.62307e-16
7.63103e-11
-1.88813e-16
1.87263e-16
7.63103e-11
3.37746e-16
-2.4329e-16
7.63106e-11
-2.23136e-16
-7.10762e-16
7.63097e-11
5.94946e-16
5.87178e-16
7.63115e-11
2.10405e-16
-1.73942e-15
7.63105e-11
5.26968e-16
1.28061e-15
7.63133e-11
-2.10606e-16
-2.23327e-15
7.63109e-11
-4.18962e-16
2.75554e-15
7.63131e-11
-3.00922e-17
-1.38806e-15
-9.26064e-16
2.77092e-15
8.86354e-11
-4.76246e-11
1.00855e-10
7.26872e-11
-8.34197e-12
2.00667e-11
7.13423e-11
-1.23414e-12
1.76569e-12
7.21715e-11
5.59186e-13
-1.08137e-12
7.22678e-11
6.40361e-14
-1.11102e-13
7.23316e-11
4.75308e-14
-7.88891e-14
7.23696e-11
2.76965e-14
-4.63333e-14
7.23648e-11
-7.62558e-16
2.51871e-15
7.23671e-11
1.53198e-15
-3.23262e-15
7.23661e-11
1.06497e-16
9.15611e-16
7.23663e-11
3.48616e-17
-3.8914e-16
7.2366e-11
1.54993e-16
2.79791e-16
7.23665e-11
2.00303e-16
-6.30785e-16
7.23659e-11
-2.63287e-18
2.14199e-16
7.23664e-11
6.23736e-17
-1.56777e-16
7.23659e-11
-2.6693e-17
3.74801e-16
7.23663e-11
5.62611e-16
-2.83091e-16
7.23664e-11
-2.01624e-16
-1.81161e-16
7.23664e-11
9.97196e-16
2.76809e-16
7.23664e-11
-9.96261e-16
-1.17947e-16
7.23665e-11
5.11022e-16
-1.37073e-16
7.23659e-11
-7.39936e-16
2.1031e-16
7.23664e-11
4.28454e-16
-5.09884e-16
7.23665e-11
5.89076e-17
4.86043e-16
7.23665e-11
1.50572e-16
-4.94001e-16
7.23658e-11
-5.38829e-16
2.44462e-16
7.23661e-11
1.58374e-16
-1.22691e-16
7.23656e-11
-1.61494e-16
2.06437e-16
7.23656e-11
3.67961e-16
-1.60371e-16
7.2366e-11
-2.73865e-17
-6.89071e-16
7.23651e-11
3.99119e-16
7.28359e-16
7.23669e-11
5.67422e-16
-1.70948e-15
7.2366e-11
2.78384e-16
1.27828e-15
7.23688e-11
2.42019e-16
-2.42859e-15
7.23662e-11
-1.02063e-15
2.7389e-15
7.23684e-11
1.4624e-16
-1.47136e-15
-1.28536e-15
2.68804e-15
8.27311e-11
-6.42599e-11
1.00605e-10
6.44485e-11
-1.10478e-11
2.09888e-11
6.26488e-11
-9.17908e-13
1.48165e-12
6.36175e-11
6.49892e-13
-1.0584e-12
6.37397e-11
2.58568e-14
-8.40574e-14
6.3809e-11
4.29248e-14
-6.3258e-14
6.38517e-11
2.56987e-14
-3.89579e-14
6.38474e-11
-2.69704e-15
3.43511e-15
6.38499e-11
2.05086e-15
-3.09378e-15
6.3849e-11
-1.32926e-16
9.46864e-16
6.38492e-11
1.29865e-16
-3.99084e-16
6.38489e-11
3.08529e-17
3.43806e-16
6.38494e-11
2.78842e-16
-6.10629e-16
6.38489e-11
-1.32547e-16
2.54324e-16
6.38493e-11
1.57851e-16
-1.99123e-16
6.38489e-11
-1.46201e-16
4.02233e-16
6.38493e-11
4.55956e-16
-2.05535e-16
6.38494e-11
-1.09317e-16
-1.92358e-16
6.38494e-11
6.24232e-16
3.44856e-16
6.38494e-11
-6.52399e-16
-1.83636e-16
6.38495e-11
3.66976e-16
-1.20686e-16
6.3849e-11
-5.70598e-16
1.84741e-16
6.38495e-11
4.07806e-16
-4.97615e-16
6.38496e-11
-8.02741e-18
5.34416e-16
6.38496e-11
1.5024e-16
-5.09201e-16
6.38489e-11
-4.66507e-16
2.43895e-16
6.38492e-11
1.71205e-16
-1.50407e-16
6.38488e-11
-1.85232e-16
2.14908e-16
6.38488e-11
2.62343e-16
-8.46811e-17
6.38492e-11
1.28147e-16
-6.8285e-16
6.38484e-11
4.97067e-17
8.09889e-16
6.38503e-11
8.34128e-16
-1.65712e-15
6.38493e-11
-2.0823e-16
1.49225e-15
6.38521e-11
8.61556e-16
-2.55431e-15
6.38495e-11
-1.37566e-15
2.59741e-15
6.38515e-11
5.95129e-16
-1.64321e-15
-1.58434e-15
2.71205e-15
7.01466e-11
-6.27092e-11
9.50032e-11
4.94154e-11
-9.01457e-12
1.86985e-11
4.78099e-11
-6.71227e-14
7.52824e-13
4.8931e-11
4.28662e-13
-8.98876e-13
4.90066e-11
-3.07653e-14
-1.89324e-14
4.90701e-11
2.47207e-14
-4.39841e-14
4.91128e-11
1.39375e-14
-2.9036e-14
4.91076e-11
-3.88079e-15
3.52016e-15
4.91105e-11
1.66288e-15
-2.59269e-15
4.91097e-11
-3.90225e-16
8.10971e-16
4.91099e-11
1.25494e-16
-3.49021e-16
4.91097e-11
-1.11737e-16
3.19174e-16
4.91103e-11
2.25444e-16
-5.17271e-16
4.91098e-11
-2.33658e-16
1.67494e-16
4.91102e-11
1.99612e-16
-1.2036e-16
4.91098e-11
-2.02408e-16
3.437e-16
4.91102e-11
2.50571e-16
-1.23219e-16
4.91103e-11
-4.6231e-17
-1.63313e-16
4.91103e-11
2.13878e-16
3.87813e-16
4.91103e-11
-2.02974e-16
-2.61763e-16
4.91104e-11
1.08955e-16
-3.9124e-17
4.91099e-11
-3.26982e-16
6.90766e-17
4.91105e-11
2.36895e-16
-3.71343e-16
4.91105e-11
2.31273e-18
4.77755e-16
4.91105e-11
4.64401e-17
-4.16681e-16
4.91099e-11
-2.92563e-16
1.38027e-16
4.91102e-11
1.10036e-16
-1.0512e-16
4.91099e-11
-2.11687e-16
1.45447e-16
4.91099e-11
6.0618e-17
-3.43874e-17
4.91104e-11
1.16547e-16
-5.67142e-16
4.91096e-11
-2.87806e-16
7.41353e-16
4.91115e-11
8.15907e-16
-1.35953e-15
4.91104e-11
-4.42528e-16
1.32326e-15
4.91131e-11
1.17732e-15
-2.14813e-15
4.91104e-11
-1.19062e-15
2.14368e-15
4.91123e-11
9.84318e-16
-1.48977e-15
-1.38752e-15
2.28091e-15
4.12813e-11
6.27096e-11
2.3252e-11
9.01478e-12
2.31187e-11
6.58316e-14
2.39758e-11
-4.2825e-13
2.3913e-11
3.20367e-14
2.39629e-11
-2.48302e-14
2.39907e-11
-1.35316e-14
2.39839e-11
2.34184e-15
2.39871e-11
-1.52087e-15
2.39862e-11
3.89677e-16
2.39865e-11
-2.00159e-16
2.39863e-11
1.17668e-16
2.39868e-11
-2.37918e-16
2.39863e-11
1.47912e-16
2.39867e-11
-1.23263e-16
2.39863e-11
1.28423e-16
2.39867e-11
-7.69444e-17
2.39867e-11
-8.68255e-17
2.39868e-11
1.8277e-16
2.39867e-11
-1.09762e-16
2.39868e-11
-6.06023e-17
2.39864e-11
5.75202e-17
2.39869e-11
-2.21407e-16
2.39868e-11
2.07635e-16
2.39869e-11
-1.91289e-16
2.39864e-11
1.1827e-16
2.39867e-11
-1.03084e-16
2.39864e-11
3.27801e-17
2.39864e-11
-2.11789e-17
2.39869e-11
-3.50226e-16
2.39861e-11
3.75562e-16
2.39878e-11
-7.03492e-16
2.39866e-11
7.25197e-16
2.3989e-11
-1.02072e-15
2.39865e-11
1.15785e-15
2.39884e-11
-7.16821e-16
1.04388e-15
7.01466e-11
9.50035e-11
6.426e-11
4.94153e-11
1.86982e-11
1.10484e-11
4.78098e-11
7.53334e-13
9.17218e-13
4.89311e-11
-8.99224e-13
-6.50242e-13
4.90067e-11
-2.08124e-14
-2.36662e-14
4.90701e-11
-4.28532e-14
-4.33405e-14
4.91127e-11
-2.87355e-14
-2.59884e-14
4.91076e-11
4.12573e-15
1.24522e-15
4.91105e-11
-2.73005e-15
-1.9999e-15
4.91097e-11
7.12783e-16
2.65817e-16
4.911e-11
-3.12835e-16
-2.23294e-16
4.91098e-11
2.51584e-16
2.86278e-17
4.91103e-11
-5.07932e-16
-3.46553e-16
4.91098e-11
1.40291e-16
1.32748e-16
4.91102e-11
-1.24142e-16
-1.33266e-16
4.91098e-11
3.51646e-16
1.24756e-16
4.91102e-11
-4.66139e-16
1.0044e-17
4.91103e-11
1.15632e-16
-2.45791e-16
4.91103e-11
-6.07307e-16
5.88431e-16
4.91103e-11
6.1587e-16
-3.77984e-16
4.91104e-11
-4.91259e-16
4.97155e-17
4.911e-11
6.54447e-16
-2.02469e-16
4.91105e-11
-1.88245e-16
-3.37395e-16
4.91105e-11
3.17187e-16
2.20897e-16
4.91105e-11
-5.77133e-16
-1.46049e-16
4.91099e-11
3.05768e-16
3.26555e-17
4.91102e-11
-2.76899e-16
-1.91199e-17
4.91099e-11
3.303e-16
-1.07009e-16
4.911e-11
-1.20485e-16
-6.26615e-17
4.91104e-11
-4.5064e-16
-5.70136e-16
4.91096e-11
5.4963e-16
3.5381e-16
4.91115e-11
-1.30698e-15
-9.04897e-16
4.91104e-11
1.15194e-15
8.0999e-16
4.91131e-11
-1.88512e-15
-1.00975e-15
4.91104e-11
2.02579e-15
1.43717e-15
4.91123e-11
-1.43852e-15
-4.16759e-16
2.40068e-15
1.05909e-15
1.3518e-10
1.10764e-10
1.10764e-10
1.15222e-10
2.86781e-11
2.8677e-11
1.10393e-10
3.16681e-12
3.16515e-12
1.11381e-10
-1.39293e-12
-1.39152e-12
1.11842e-10
-2.51916e-13
-2.51328e-13
1.11951e-10
-9.56194e-14
-9.45722e-14
1.1201e-10
-5.61424e-14
-5.65561e-14
1.12016e-10
-2.19683e-15
-2.24347e-15
1.12015e-10
-2.50337e-15
-2.56259e-15
1.12015e-10
3.37129e-16
3.27412e-16
1.12015e-10
-1.52053e-16
-1.69059e-16
1.12015e-10
1.06732e-17
-1.47889e-17
1.12015e-10
-5.8939e-16
-5.65484e-16
1.12014e-10
-3.20455e-17
-3.37398e-17
1.12015e-10
-1.21841e-16
-1.20665e-16
1.12015e-10
3.05295e-16
2.18589e-16
1.12015e-10
-5.05138e-16
-3.64289e-16
1.12015e-10
7.88132e-18
-5.67671e-17
1.12015e-10
-7.32034e-16
-3.39259e-16
1.12016e-10
6.20586e-16
6.07478e-16
1.12015e-10
-4.95022e-16
-5.22081e-16
1.12015e-10
3.69174e-16
3.49869e-16
1.12015e-10
2.58263e-16
-1.48718e-16
1.12017e-10
1.27254e-16
2.09338e-16
1.12015e-10
-6.54294e-16
-5.47444e-16
1.12015e-10
-4.14804e-17
9.08461e-18
1.12015e-10
-2.40954e-16
-2.32216e-16
1.12015e-10
9.17905e-17
7.15935e-18
1.12015e-10
-2.19916e-16
-2.68019e-16
1.12015e-10
-8.34732e-16
-8.44257e-16
1.12015e-10
2.39096e-16
1.7672e-16
1.12016e-10
-1.23339e-15
-1.2423e-15
1.12017e-10
1.18294e-15
1.11247e-15
1.12017e-10
-1.06831e-15
-1.15271e-15
1.12017e-10
1.75883e-15
1.8831e-15
1.12017e-10
-2.59386e-16
-2.67437e-16
1.8646e-15
1.93643e-15
1.67454e-10
8.74092e-11
1.23207e-10
1.55918e-10
2.56762e-11
3.55279e-11
1.51105e-10
4.18355e-12
5.27482e-12
1.51378e-10
-1.15117e-12
-1.57167e-12
1.51878e-10
-3.68497e-13
-4.69809e-13
1.52012e-10
-1.25782e-13
-1.62175e-13
1.52065e-10
-6.38492e-14
-7.98267e-14
1.52072e-10
-6.60951e-15
-6.03522e-15
1.52071e-10
-1.86401e-15
-2.8396e-15
1.52071e-10
3.30898e-16
4.74002e-16
1.5207e-10
-1.57513e-17
-1.57197e-16
1.5207e-10
-9.00042e-17
-5.18019e-17
1.5207e-10
-5.74458e-16
-7.15958e-16
1.5207e-10
-1.14254e-16
-4.84866e-17
1.5207e-10
-9.68855e-17
-1.51731e-16
1.5207e-10
3.01441e-16
2.48581e-16
1.5207e-10
-5.19064e-16
-2.81112e-16
1.52071e-10
8.69754e-18
-2.44675e-16
1.52071e-10
-9.33022e-16
7.18251e-17
1.52071e-10
5.30401e-16
3.69758e-16
1.5207e-10
-4.44846e-16
-4.49435e-16
1.52071e-10
2.29885e-16
1.47982e-16
1.5207e-10
7.58217e-16
-4.39046e-16
1.52072e-10
6.09526e-18
2.70974e-16
1.5207e-10
-7.14434e-16
-5.338e-16
1.5207e-10
-2.60364e-16
1.43464e-17
1.5207e-10
-2.45719e-16
-1.73879e-16
1.5207e-10
1.5207e-17
-5.80125e-17
1.5207e-10
-1.65403e-16
-3.79623e-16
1.5207e-10
-9.05335e-16
-1.04002e-15
1.5207e-10
1.80261e-16
1.39904e-16
1.52071e-10
-9.79561e-16
-1.56054e-15
1.52071e-10
1.14384e-15
1.16244e-15
1.52072e-10
-5.42008e-16
-1.35558e-15
1.52072e-10
1.29123e-15
2.3453e-15
1.52072e-10
3.20244e-16
-6.76164e-17
1.18445e-15
2.31153e-15
1.83164e-10
4.68588e-11
1.24942e-10
1.78769e-10
1.45704e-11
3.55692e-11
1.7562e-10
2.84732e-12
6.247e-12
1.75475e-10
-5.92103e-13
-1.49326e-12
1.75825e-10
-2.57489e-13
-5.74149e-13
1.75933e-10
-8.98095e-14
-2.18135e-13
1.7597e-10
-4.25278e-14
-9.98085e-14
1.75974e-10
-5.81345e-15
-9.64126e-15
1.75973e-10
-1.08972e-15
-2.80964e-15
1.75972e-10
3.16626e-16
7.29526e-16
1.75972e-10
4.93049e-17
-7.44898e-17
1.75972e-10
-7.12596e-17
-8.04083e-17
1.75972e-10
-3.79384e-16
-7.76569e-16
1.75971e-10
-1.01718e-16
-7.88485e-17
1.75972e-10
-3.92755e-17
-1.6087e-16
1.75971e-10
2.70398e-16
2.48877e-16
1.75971e-10
-4.51582e-16
-3.08349e-16
1.75972e-10
9.3449e-17
-2.93451e-16
1.75972e-10
-1.06332e-15
1.3444e-16
1.75972e-10
3.83725e-16
2.90531e-16
1.75971e-10
-3.57655e-16
-3.85212e-16
1.75971e-10
1.68698e-16
5.72626e-17
1.75971e-10
1.24577e-15
-4.96569e-16
1.75973e-10
-2.09933e-17
2.42838e-16
1.75971e-10
-7.434e-16
-5.1909e-16
1.75971e-10
-4.49621e-16
4.59161e-18
1.75971e-10
-2.15637e-16
-1.51888e-16
1.75971e-10
3.18696e-17
-1.06373e-16
1.75971e-10
3.55468e-17
-4.94458e-16
1.7597e-10
-7.29393e-16
-1.1141e-15
1.7597e-10
2.79367e-16
7.84001e-18
1.75971e-10
-4.98247e-16
-1.67613e-15
1.75971e-10
1.03608e-15
1.08261e-15
1.75972e-10
-1.15341e-16
-1.2702e-15
1.75972e-10
5.53245e-16
2.54508e-15
1.75973e-10
4.36895e-16
1.45576e-16
2.02371e-16
2.43524e-15
1.8954e-10
1.68652e-15
1.24536e-10
1.88906e-10
4.38339e-16
3.41142e-11
1.87105e-10
-1.56256e-16
6.40464e-12
1.86858e-10
-2.74289e-15
-1.42403e-12
1.87087e-10
-2.65868e-15
-5.96723e-13
1.87158e-10
2.88619e-15
-2.4437e-13
1.8718e-10
9.6329e-16
-1.11633e-13
1.87181e-10
-6.60281e-16
-1.19341e-14
1.8718e-10
-2.80404e-16
-2.76298e-15
1.87179e-10
1.08243e-16
9.5042e-16
1.87179e-10
1.83365e-17
-2.59789e-19
1.87179e-10
5.52443e-18
-7.53179e-17
1.87179e-10
-8.61937e-17
-8.00083e-16
1.87178e-10
-6.38642e-17
-8.36947e-17
1.87178e-10
4.92991e-17
-1.76348e-16
1.87178e-10
1.99132e-16
2.57665e-16
1.87178e-10
-2.89268e-16
-3.34911e-16
1.87178e-10
2.05091e-16
-3.14664e-16
1.87178e-10
-1.04628e-15
1.2897e-16
1.87179e-10
2.26387e-16
1.91072e-16
1.87178e-10
-2.69782e-16
-3.08025e-16
1.87178e-10
1.19188e-16
-9.07566e-18
1.87178e-10
1.59047e-15
-4.45082e-16
1.87179e-10
2.7066e-17
2.38412e-16
1.87178e-10
-7.28341e-16
-5.20928e-16
1.87178e-10
-5.95713e-16
-1.50227e-17
1.87178e-10
-1.68115e-16
-1.48435e-16
1.87178e-10
4.74128e-17
-1.4152e-16
1.87177e-10
2.88422e-16
-5.42102e-16
1.87177e-10
-4.38131e-16
-1.15354e-15
1.87177e-10
4.21457e-16
-4.33668e-17
1.87177e-10
1.18661e-16
-1.72646e-15
1.87178e-10
9.4427e-16
1.11132e-15
1.87178e-10
3.17197e-16
-1.23747e-15
1.87178e-10
-3.24104e-16
2.63251e-15
1.87179e-10
3.03554e-16
2.09578e-16
-8.48606e-16
2.50852e-15
1.8954e-10
-4.68556e-11
1.24537e-10
1.88906e-10
-1.45695e-11
3.41143e-11
1.87105e-10
-2.8478e-12
6.40426e-12
1.86858e-10
5.87101e-13
-1.42411e-12
1.87087e-10
2.52573e-13
-5.96533e-13
1.87158e-10
9.5347e-14
-2.44512e-13
1.8718e-10
4.43783e-14
-1.11569e-13
1.87181e-10
4.33729e-15
-1.19511e-14
1.8718e-10
5.75707e-16
-2.74707e-15
1.87179e-10
-1.17537e-16
9.96604e-16
1.87179e-10
-2.57269e-17
6.41667e-18
1.87179e-10
8.03294e-17
-4.86697e-17
1.87179e-10
2.15255e-16
-7.90899e-16
1.87178e-10
-6.84525e-17
-7.05138e-17
1.87178e-10
1.73655e-16
-1.78898e-16
1.87178e-10
8.45706e-17
2.80855e-16
1.87178e-10
-8.93641e-17
-3.45244e-16
1.87178e-10
2.89701e-16
-3.33318e-16
1.87178e-10
-9.02106e-16
1.30343e-16
1.87179e-10
8.99621e-17
6.03298e-17
1.87178e-10
-1.79659e-16
-2.29286e-16
1.87178e-10
6.58671e-17
-6.08771e-17
1.87178e-10
1.71661e-15
-3.42905e-16
1.8718e-10
9.94689e-17
2.69593e-16
1.87178e-10
-6.61954e-16
-5.3246e-16
1.87178e-10
-6.79878e-16
-4.68322e-17
1.87178e-10
-8.3383e-17
-1.33412e-16
1.87177e-10
5.10481e-17
-1.49431e-16
1.87177e-10
4.96053e-16
-5.10634e-16
1.87177e-10
-9.42237e-17
-1.15217e-15
1.87177e-10
4.87677e-16
1.45632e-17
1.87177e-10
7.6205e-16
-1.71633e-15
1.87178e-10
6.94715e-16
1.16004e-15
1.87178e-10
7.57252e-16
-1.31486e-15
1.87178e-10
-1.19447e-15
2.65357e-15
1.87179e-10
1.97673e-16
1.61702e-16
-1.81614e-15
2.48207e-15
1.83164e-10
-8.74066e-11
1.24943e-10
1.78769e-10
-2.56754e-11
3.55695e-11
1.7562e-10
-4.18439e-12
6.24608e-12
1.75474e-10
1.1475e-12
-1.49346e-12
1.75825e-10
3.64642e-13
-5.73662e-13
1.75933e-10
1.30615e-13
-2.18558e-13
1.7597e-10
6.54792e-14
-9.96515e-14
1.75974e-10
4.81829e-15
-9.70204e-15
1.75973e-10
1.47329e-15
-2.73628e-15
1.75972e-10
-1.80378e-16
8.63504e-16
1.75971e-10
7.60495e-18
-5.40984e-17
1.75972e-10
9.61937e-17
-5.40829e-18
1.75972e-10
4.38548e-16
-7.51492e-16
1.75971e-10
-1.50134e-16
-4.07912e-17
1.75972e-10
3.10791e-16
-1.72274e-16
1.75971e-10
-6.6124e-17
3.11391e-16
1.75972e-10
8.60026e-17
-3.34387e-16
1.75972e-10
2.99145e-16
-3.44712e-16
1.75972e-10
-6.77622e-16
1.39801e-16
1.75972e-10
-1.2075e-17
-6.75486e-17
1.75971e-10
-7.85838e-17
-1.68155e-16
1.75971e-10
-8.51705e-18
-8.46149e-17
1.75971e-10
1.58812e-15
-2.19512e-16
1.75973e-10
1.36118e-16
3.26264e-16
1.75971e-10
-5.29937e-16
-5.56008e-16
1.75971e-10
-6.8759e-16
-7.53944e-17
1.75971e-10
4.31502e-17
-1.13289e-16
1.75971e-10
2.72304e-17
-1.30024e-16
1.75971e-10
5.71593e-16
-4.10133e-16
1.7597e-10
2.18499e-16
-1.113e-15
1.7597e-10
3.75581e-16
1.56258e-16
1.75971e-10
1.29201e-15
-1.64701e-15
1.75971e-10
1.79862e-16
1.22742e-15
1.75972e-10
1.19647e-15
-1.47744e-15
1.75972e-10
-1.89732e-15
2.5937e-15
1.75973e-10
3.62346e-16
9.14933e-18
-2.54196e-15
2.37031e-15
1.67454e-10
-1.10763e-10
1.23208e-10
1.55918e-10
-2.86775e-11
3.55283e-11
1.51105e-10
-3.16813e-12
5.27382e-12
1.51377e-10
1.3912e-12
-1.57187e-12
1.51878e-10
2.49383e-13
-4.6915e-13
1.52012e-10
9.95059e-14
-1.62927e-13
1.52065e-10
5.76305e-14
-7.96265e-14
1.52072e-10
-4.69942e-17
-6.20134e-15
1.52071e-10
2.25296e-15
-2.64319e-15
1.52071e-10
-2.68924e-16
6.65379e-16
1.5207e-10
9.94054e-17
-1.27099e-16
1.5207e-10
4.28854e-18
5.50163e-17
1.5207e-10
5.00157e-16
-6.86687e-16
1.5207e-10
-3.62146e-16
-1.87486e-18
1.5207e-10
4.44716e-16
-1.69085e-16
1.5207e-10
-2.31093e-16
3.36662e-16
1.5207e-10
2.27784e-16
-3.05819e-16
1.52071e-10
2.07925e-16
-3.21051e-16
1.52071e-10
-3.86908e-16
1.1695e-16
1.52071e-10
-4.50224e-17
-1.54094e-16
1.5207e-10
-1.79003e-17
-1.30951e-16
1.5207e-10
-1.72752e-16
-6.62361e-17
1.5207e-10
1.18456e-15
-7.46415e-17
1.52072e-10
1.58629e-16
3.86441e-16
1.52071e-10
-3.78261e-16
-5.93708e-16
1.5207e-10
-6.40915e-16
-8.08052e-17
1.5207e-10
1.45272e-16
-1.20015e-16
1.5207e-10
-1.21962e-16
-9.05626e-17
1.5207e-10
4.0967e-16
-2.79211e-16
1.5207e-10
3.50503e-16
-1.02776e-15
1.5207e-10
-6.15216e-17
3.10189e-16
1.52071e-10
1.64594e-15
-1.51049e-15
1.52071e-10
-3.76029e-16
1.35182e-15
1.52072e-10
1.80599e-15
-1.62155e-15
1.52072e-10
-2.32718e-15
2.39917e-15
1.52072e-10
1.02718e-15
-2.53085e-16
-2.81092e-15
2.23291e-15
1.3518e-10
-9.50028e-11
1.10764e-10
1.15223e-10
-1.86981e-11
2.86775e-11
1.10394e-10
-7.54619e-13
3.16434e-12
1.11381e-10
8.99316e-13
-1.39151e-12
1.11841e-10
1.98533e-14
-2.50387e-13
1.11951e-10
4.49701e-14
-9.59969e-14
1.1201e-10
2.95748e-14
-5.62052e-14
1.12016e-10
-5.7788e-15
-2.58328e-15
1.12015e-10
2.64697e-15
-2.22618e-15
1.12015e-10
-6.98588e-16
4.57826e-16
1.12015e-10
2.76138e-16
-1.45757e-16
1.12015e-10
-2.24129e-16
7.3694e-17
1.12015e-10
5.03591e-16
-5.48785e-16
1.12014e-10
-4.47125e-16
-1.15666e-17
1.12015e-10
3.99318e-16
-1.32493e-16
1.12015e-10
-3.90996e-16
3.09872e-16
1.12015e-10
3.69237e-16
-3.09348e-16
1.12016e-10
-1.18526e-17
-2.05059e-16
1.12015e-10
1.21705e-16
-5.15854e-17
1.12016e-10
-1.85313e-16
-1.60783e-16
1.12015e-10
1.51626e-16
-6.21297e-17
1.12015e-10
-5.00539e-16
-2.42233e-17
1.12015e-10
6.04973e-16
1.74243e-16
1.12017e-10
-5.42042e-17
3.56773e-16
1.12015e-10
5.17432e-17
-5.76668e-16
1.12015e-10
-5.88786e-16
-9.88089e-17
1.12015e-10
2.77668e-16
-1.27162e-16
1.12015e-10
-3.67079e-16
-5.36289e-17
1.12015e-10
1.51503e-16
-1.8975e-16
1.12015e-10
2.80084e-16
-7.91879e-16
1.12015e-10
-5.94884e-16
3.16429e-16
1.12016e-10
1.63782e-15
-1.17217e-15
1.12017e-10
-9.30564e-16
1.21929e-15
1.12018e-10
2.32316e-15
-1.40106e-15
1.12017e-10
-2.37952e-15
1.9264e-15
1.12017e-10
1.90641e-15
-4.11917e-16
-2.79291e-15
1.85228e-15
7.01466e-11
6.42604e-11
4.94154e-11
1.10481e-11
4.78099e-11
9.16241e-13
4.8931e-11
-6.49786e-13
4.90066e-11
-2.36641e-14
4.90702e-11
-4.31273e-14
4.91128e-11
-2.60644e-14
4.91076e-11
1.01261e-15
4.91105e-11
-1.78559e-15
4.91097e-11
4.11329e-16
4.91099e-11
-1.97041e-16
4.91097e-11
9.17743e-17
4.91103e-11
-3.04841e-16
4.91098e-11
1.17421e-16
4.91102e-11
-1.00088e-16
4.91098e-11
1.31632e-16
4.91102e-11
-9.84518e-17
4.91103e-11
-1.89812e-16
4.91103e-11
2.68602e-16
4.91103e-11
-2.30203e-16
4.91104e-11
-4.15635e-17
4.91099e-11
-2.24862e-17
4.91105e-11
-1.65094e-16
4.91105e-11
2.36218e-16
4.91105e-11
-2.54575e-16
4.91099e-11
6.40542e-17
4.91102e-11
-6.79734e-17
4.91098e-11
-4.82687e-17
4.91099e-11
1.35505e-18
4.91104e-11
-5.52123e-16
4.91096e-11
4.54751e-16
4.91115e-11
-8.31097e-16
4.91104e-11
8.61212e-16
4.91131e-11
-1.14617e-15
4.91104e-11
1.39053e-15
4.91123e-11
-5.34189e-16
1.00993e-15
8.2731e-11
1.00605e-10
4.76246e-11
6.44484e-11
2.09885e-11
8.34318e-12
6.26487e-11
1.48222e-12
1.23328e-12
6.36176e-11
-1.05852e-12
-5.60188e-13
6.37398e-11
-8.51972e-14
-6.08062e-14
6.3809e-11
-6.28689e-14
-4.79559e-14
6.38517e-11
-3.83744e-14
-2.87405e-14
6.38474e-11
3.53496e-15
-7.43626e-16
6.38499e-11
-3.13823e-15
-1.56049e-15
6.3849e-11
7.37087e-16
2.63382e-16
6.38492e-11
-3.72475e-16
-1.69703e-16
6.38489e-11
2.44107e-16
1.85783e-18
6.38494e-11
-6.15651e-16
-3.04418e-16
6.38489e-11
1.95616e-16
7.9414e-17
6.38494e-11
-1.75085e-16
-7.73919e-17
6.38489e-11
3.9213e-16
5.42194e-17
6.38493e-11
-3.8685e-16
1.16364e-16
6.38494e-11
-2.24057e-17
-3.29469e-16
6.38494e-11
-1.94026e-16
8.10919e-16
6.38495e-11
3.31078e-16
-6.09978e-16
6.38495e-11
-3.87399e-16
1.74314e-16
6.3849e-11
5.08708e-16
-4.27836e-16
6.38495e-11
-4.17681e-16
-2.39497e-16
6.38496e-11
4.47861e-16
1.65529e-16
6.38496e-11
-6.12158e-16
-6.12257e-17
6.38489e-11
3.26914e-16
-1.1315e-16
6.38492e-11
-2.44736e-16
5.44583e-17
6.38488e-11
3.51107e-16
-2.65685e-16
6.38489e-11
-1.82859e-16
-1.63022e-17
6.38493e-11
-5.43558e-16
-6.91298e-16
6.38484e-11
6.27247e-16
3.30297e-16
6.38503e-11
-1.56038e-15
-8.07253e-16
6.38493e-11
1.22886e-15
8.04738e-16
6.3852e-11
-2.25026e-15
-7.06018e-16
6.38494e-11
2.44851e-15
1.23149e-15
6.38515e-11
-1.49581e-15
-8.96607e-17
2.73757e-15
6.09193e-16
1.67454e-10
1.23208e-10
8.74083e-11
1.55918e-10
3.55289e-11
2.56746e-11
1.51105e-10
5.27606e-12
4.18086e-12
1.51378e-10
-1.573e-12
-1.14886e-12
1.51878e-10
-4.69545e-13
-3.67614e-13
1.52012e-10
-1.6325e-13
-1.24223e-13
1.52065e-10
-7.95585e-14
-6.44236e-14
1.52072e-10
-6.09464e-15
-6.73515e-15
1.52071e-10
-2.82258e-15
-1.94962e-15
1.52071e-10
4.5077e-16
3.25246e-16
1.5207e-10
-1.69361e-16
-3.97421e-17
1.5207e-10
-2.95145e-17
-1.24311e-16
1.5207e-10
-7.61406e-16
-5.38896e-16
1.5207e-10
-2.89356e-17
-1.3723e-16
1.5207e-10
-1.78766e-16
-7.7851e-17
1.5207e-10
3.26578e-16
1.79419e-16
1.5207e-10
-3.33232e-16
-3.057e-16
1.52071e-10
-1.9691e-16
-1.00945e-16
1.52071e-10
-2.04762e-17
-3.12701e-16
1.52071e-10
2.83609e-16
4.46147e-16
1.5207e-10
-3.89827e-16
-4.28436e-16
1.52071e-10
8.84693e-17
1.5192e-16
1.5207e-10
-1.65789e-16
1.66593e-16
1.52072e-10
1.74294e-16
1.37495e-16
1.5207e-10
-5.63039e-16
-5.47883e-16
1.5207e-10
-7.17439e-17
-2.03655e-16
1.5207e-10
-2.29692e-16
-2.10339e-16
1.5207e-10
3.95582e-17
-1.26282e-16
1.5207e-10
-4.11061e-16
-2.43327e-16
1.5207e-10
-1.02669e-15
-9.11955e-16
1.5207e-10
1.85952e-16
8.44329e-17
1.52071e-10
-1.52858e-15
-9.93571e-16
1.52071e-10
1.19436e-15
1.03437e-15
1.52072e-10
-1.28678e-15
-6.70547e-16
1.52072e-10
2.25926e-15
1.49618e-15
1.52072e-10
-4.00047e-17
3.06054e-16
2.26572e-15
1.31339e-15
2.11954e-10
1.00581e-10
1.00581e-10
2.14487e-10
3.42638e-11
3.42623e-11
2.11029e-10
7.00334e-12
7.00132e-12
2.10216e-10
-1.16614e-12
-1.16396e-12
2.10571e-10
-6.4707e-13
-6.47429e-13
2.10707e-10
-2.2975e-13
-2.28186e-13
2.10744e-10
-9.56268e-14
-9.59833e-14
2.10749e-10
-1.24894e-14
-1.24648e-14
2.10747e-10
-2.08187e-15
-2.10247e-15
2.10747e-10
6.00324e-16
6.41913e-16
2.10746e-10
1.79666e-17
4.01282e-17
2.10746e-10
-1.29769e-16
-1.59598e-16
2.10746e-10
-7.50867e-16
-6.83871e-16
2.10745e-10
-1.27375e-16
-1.75025e-16
2.10746e-10
-1.50647e-16
-9.46075e-17
2.10746e-10
2.86127e-16
1.7807e-16