/*--------------------------------*- C++ -*----------------------------------*\
  =========                 |
  \\      /  F ield         | OpenFOAM: The Open Source CFD Toolbox
   \\    /   O peration     | Website:  https://openfoam.org
    \\  /    A nd           | Version:  13
     \\/     M anipulation  |
\*---------------------------------------------------------------------------*/
FoamFile
{
    format      ascii;
    class       volVectorField;
    location    "30";
    object      U;
}
// * * * * * * * * * * * * * * * * * * * * * * * * * * * * * * * * * * * * * //

dimensions      [0 1 -1 0 0 0 0];

internalField   nonuniform List<vector> 
3700
(
(0.371097 0.00641737 0.00641738)
(0.314231 0.000766113 0.000766107)
(0.219065 -9.26946e-05 -9.26727e-05)
(0.236513 -2.24826e-05 -2.2498e-05)
(0.240297 8.59991e-06 8.56265e-06)
(0.239163 -3.12477e-06 -3.10275e-06)
(0.23984 -6.11479e-07 -6.11255e-07)
(0.239892 3.70272e-07 3.76918e-07)
(0.239845 -2.05773e-07 -2.06009e-07)
(0.239871 6.56173e-08 6.57014e-08)
(0.239863 -2.54536e-08 -2.46119e-08)
(0.239864 1.8168e-08 1.76218e-08)
(0.239866 -2.57939e-08 -2.46881e-08)
(0.239865 2.5079e-08 2.39828e-08)
(0.239865 -2.30488e-08 -2.15609e-08)
(0.239865 1.77275e-08 1.63756e-08)
(0.239865 6.89857e-10 -1.64909e-09)
(0.239867 -9.18857e-09 -8.23415e-09)
(0.239868 4.11825e-08 2.9256e-08)
(0.239867 -3.22241e-08 -2.07823e-08)
(0.239868 9.05577e-09 1.36529e-09)
(0.239866 -8.57301e-09 -2.93153e-10)
(0.239866 -2.7919e-08 -2.85829e-08)
(0.239868 2.51211e-08 2.59234e-08)
(0.239869 -1.63648e-08 -1.97482e-08)
(0.239867 8.91151e-09 1.31784e-08)
(0.239865 -7.34673e-09 -7.56689e-09)
(0.239866 3.14398e-09 2.89093e-09)
(0.239863 -2.86822e-09 1.10219e-09)
(0.239868 -3.36841e-08 -3.612e-08)
(0.239863 4.36866e-08 4.33734e-08)
(0.239871 -8.37299e-08 -8.33272e-08)
(0.23987 9.44263e-08 9.67087e-08)
(0.23988 -1.1456e-07 -1.14663e-07)
(0.239877 1.29267e-07 1.25719e-07)
(0.239875 -1.07911e-07 -1.06914e-07)
(0.239871 1.36284e-07 1.34326e-07)
(0.634043 0.0126684 0.00976976)
(0.604784 0.00214721 0.00160633)
(0.464128 0.000111512 -0.000128931)
(0.48397 -0.000117934 -6.07234e-05)
(0.491462 7.33906e-07 1.40208e-05)
(0.490084 -6.11164e-06 -5.00942e-06)
(0.491018 -4.06989e-06 -1.79418e-06)
(0.491144 4.47156e-07 7.99292e-07)
(0.491075 -3.5013e-07 -3.63325e-07)
(0.491106 5.6496e-08 1.36387e-07)
(0.491097 -3.79228e-08 -2.64656e-08)
(0.491098 1.61952e-08 5.24046e-08)
(0.491101 -6.19922e-08 -5.4424e-08)
(0.4911 3.42786e-08 6.12577e-08)
(0.4911 -3.3147e-08 -6.48963e-08)
(0.4911 3.58479e-08 2.88175e-08)
(0.491099 -1.4499e-08 4.50917e-08)
(0.491103 -2.60625e-08 -4.46223e-08)
(0.491103 7.03481e-08 1.18502e-07)
(0.491103 -5.38289e-08 -6.92218e-08)
(0.491105 1.25236e-08 5.62698e-10)
(0.491101 -1.58959e-08 -2.32123e-08)
(0.491102 -4.16688e-08 -8.59245e-08)
(0.491105 3.09452e-08 8.79755e-08)
(0.491106 -2.68173e-08 -6.7677e-08)
(0.491102 1.12139e-08 3.73946e-08)
(0.4911 -1.39563e-08 -3.80301e-08)
(0.491101 8.05508e-09 -8.83286e-09)
(0.491097 -1.97924e-08 7.10017e-09)
(0.491105 -7.52542e-08 -1.25734e-07)
(0.491097 7.17717e-08 1.03904e-07)
(0.491108 -1.67939e-07 -2.23247e-07)
(0.491106 1.39921e-07 3.52834e-07)
(0.491121 -2.158e-07 -2.7534e-07)
(0.491116 2.65414e-07 2.47703e-07)
(0.491115 -1.30016e-07 -2.76318e-07)
(0.491107 2.3851e-07 4.13598e-07)
(0.736392 0.011096 0.00969904)
(0.754635 0.00202541 0.00163463)
(0.614465 0.000229699 -0.000113723)
(0.630459 -0.000122955 -7.39087e-05)
(0.638719 -1.05129e-05 1.45047e-05)
(0.637483 -9.31781e-06 -5.69323e-06)
(0.638397 -5.5086e-06 -2.3413e-06)
(0.638544 -1.458e-08 8.80691e-07)
(0.63847 -3.48667e-07 -4.36619e-07)
(0.638499 4.2577e-08 1.3916e-07)
(0.63849 -4.31763e-08 -3.36777e-08)
(0.63849 4.23995e-09 5.38881e-08)
(0.638493 -7.29179e-08 -6.41108e-08)
(0.638491 2.73883e-08 6.29064e-08)
(0.638491 -3.09402e-08 -6.65863e-08)
(0.638491 3.13627e-08 3.93027e-08)
(0.63849 2.08365e-08 4.66374e-08)
(0.638494 -6.15644e-08 -5.39295e-08)
(0.638494 1.99224e-07 1.35223e-07)
(0.638494 -1.70368e-07 -7.17186e-08)
(0.638496 7.38575e-08 -7.16199e-09)
(0.638492 -1.13698e-07 -1.74856e-08)
(0.638492 -3.9659e-08 -1.0042e-07)
(0.638496 2.90471e-08 1.03542e-07)
(0.638497 -8.38217e-10 -8.03803e-08)
(0.638492 -3.50976e-08 4.68122e-08)
(0.638491 6.60516e-09 -4.25312e-08)
(0.638491 -2.96474e-08 7.89734e-09)
(0.638486 -3.11159e-08 1.21403e-08)
(0.638494 -1.08232e-07 -1.22104e-07)
(0.638484 6.95629e-08 1.28364e-07)
(0.638497 -1.66038e-07 -2.36649e-07)
(0.638493 1.37383e-07 3.64382e-07)
(0.638511 -1.71862e-07 -3.38022e-07)
(0.638506 2.80481e-07 2.79955e-07)
(0.638506 -4.71738e-08 -2.94753e-07)
(0.638499 1.67242e-07 4.46637e-07)
(0.77756 0.00692788 0.00942988)
(0.831161 0.00125393 0.00146686)
(0.702566 0.000217949 -0.000108932)
(0.716257 -8.26673e-05 -7.8857e-05)
(0.724007 -1.25526e-05 1.53432e-05)
(0.722752 -8.61048e-06 -6.00313e-06)
(0.723581 -4.8723e-06 -2.74247e-06)
(0.723718 -3.07856e-07 9.21961e-07)
(0.723644 -2.32085e-07 -4.66101e-07)
(0.72367 5.08155e-08 1.42993e-07)
(0.723662 -3.09171e-08 -3.68691e-08)
(0.723661 7.89247e-09 5.45218e-08)
(0.723663 -5.8659e-08 -6.57758e-08)
(0.723662 2.34355e-08 6.34009e-08)
(0.723661 -2.61296e-08 -6.31848e-08)
(0.723661 2.17471e-08 4.31094e-08)
(0.72366 5.22557e-08 3.19719e-08)
(0.723664 -7.40666e-08 -4.77525e-08)
(0.723664 2.56602e-07 1.20203e-07)
(0.723664 -2.3153e-07 -5.62827e-08)
(0.723666 1.09949e-07 -1.75873e-08)
(0.723661 -1.67099e-07 -3.40906e-10)
(0.723661 -1.02791e-08 -1.04967e-07)
(0.723665 1.60959e-08 1.03736e-07)
(0.723666 2.17284e-08 -8.55744e-08)
(0.723661 -7.15013e-08 5.28293e-08)
(0.72366 1.67896e-08 -4.3848e-08)
(0.72366 -5.36054e-08 1.88626e-08)
(0.723654 -1.99063e-08 4.87858e-09)
(0.723662 -1.20882e-07 -1.14352e-07)
(0.723651 7.27701e-08 1.21982e-07)
(0.723663 -1.32583e-07 -2.36322e-07)
(0.72366 1.46425e-07 3.40815e-07)
(0.723678 -1.15502e-07 -3.44202e-07)
(0.723673 2.13964e-07 2.99985e-07)
(0.723675 -6.39702e-09 -2.88258e-07)
(0.723669 7.69542e-08 4.35148e-07)
(0.792179 0.00233548 0.00932047)
(0.863436 0.000411213 0.00134631)
(0.74325 8.61289e-05 -0.000115184)
(0.756397 -2.8406e-05 -8.13701e-05)
(0.763644 -4.8953e-06 1.63758e-05)
(0.762285 -3.57275e-06 -5.97646e-06)
(0.763044 -2.05049e-06 -2.9623e-06)
(0.763167 -2.5922e-07 9.59143e-07)
(0.763093 -9.1326e-08 -4.81175e-07)
(0.763118 5.49202e-08 1.52536e-07)
(0.76311 -2.23346e-08 -3.88799e-08)
(0.763109 1.98679e-08 5.79734e-08)
(0.763111 -3.29999e-08 -6.65527e-08)
(0.763109 2.22808e-08 6.56313e-08)
(0.763109 -1.82874e-08 -6.458e-08)
(0.763109 1.8131e-08 4.40929e-08)
(0.763108 8.14797e-08 1.88443e-08)
(0.763111 -7.46858e-08 -3.87739e-08)
(0.763111 2.77625e-07 9.48121e-08)
(0.763111 -2.58737e-07 -3.25975e-08)
(0.763113 1.26671e-07 -3.31593e-08)
(0.763109 -1.86212e-07 1.88849e-08)
(0.763109 2.45397e-08 -1.06843e-07)
(0.763112 1.2486e-08 1.03002e-07)
(0.763113 3.34194e-08 -9.25778e-08)
(0.763108 -9.55438e-08 5.97498e-08)
(0.763107 2.48098e-08 -5.2092e-08)
(0.763107 -5.32331e-08 2.18841e-08)
(0.763101 1.40378e-08 -3.18163e-09)
(0.763108 -1.02022e-07 -1.18835e-07)
(0.763098 9.76847e-08 1.11954e-07)
(0.763109 -7.42164e-08 -2.38501e-07)
(0.763105 1.44862e-07 3.49286e-07)
(0.763123 -9.41843e-08 -3.41701e-07)
(0.763119 1.083e-07 3.13398e-07)
(0.763122 -7.80575e-09 -2.88436e-07)
(0.763116 -2.11155e-08 4.38636e-07)
(0.792179 -0.00233551 0.00932048)
(0.863437 -0.000410755 0.00134632)
(0.743251 -8.64615e-05 -0.000115219)
(0.756397 2.80965e-05 -8.13938e-05)
(0.763643 5.99606e-06 1.63416e-05)
(0.762284 3.26163e-06 -5.90218e-06)
(0.763044 1.74472e-06 -2.98262e-06)
(0.763167 -5.68677e-08 9.7009e-07)
(0.763093 5.61731e-08 -4.90882e-07)
(0.763118 4.48761e-08 1.61826e-07)
(0.76311 -1.71554e-08 -4.35686e-08)
(0.763109 2.98641e-08 6.1398e-08)
(0.763111 -2.63788e-09 -6.78819e-08)
(0.763109 1.7984e-08 6.66259e-08)
(0.763109 -6.29912e-09 -6.56963e-08)
(0.763109 1.49631e-08 4.80959e-08)
(0.763108 1.00983e-07 7.09124e-09)
(0.763111 -6.48995e-08 -3.08248e-08)
(0.763111 2.63738e-07 6.65865e-08)
(0.763111 -2.52172e-07 -7.91349e-09)
(0.763113 1.25065e-07 -4.92575e-08)
(0.763109 -1.78312e-07 3.90422e-08)
(0.763109 5.57068e-08 -1.05209e-07)
(0.763112 1.41799e-08 1.04285e-07)
(0.763113 3.56943e-08 -1.00577e-07)
(0.763108 -1.07074e-07 6.62546e-08)
(0.763107 3.11676e-08 -5.84975e-08)
(0.763107 -3.99482e-08 2.98691e-08)
(0.763101 5.14053e-08 -3.41922e-09)
(0.763108 -6.14591e-08 -1.15923e-07)
(0.763097 1.16446e-07 1.1249e-07)
(0.763109 1.89865e-09 -2.31309e-07)
(0.763105 1.17124e-07 3.51681e-07)
(0.763124 -7.0043e-08 -3.53855e-07)
(0.763119 -1.59194e-08 3.15951e-07)
(0.763122 -1.28335e-08 -2.90414e-07)
(0.763116 -1.26421e-07 4.35886e-07)
(0.77756 -0.00692791 0.00942991)
(0.831161 -0.00125355 0.00146689)
(0.702568 -0.000218213 -0.000109008)
(0.716258 8.24454e-05 -7.89157e-05)
(0.724006 1.3496e-05 1.52365e-05)
(0.722751 8.32629e-06 -5.79693e-06)
(0.723582 4.63396e-06 -2.79856e-06)
(0.723718 -8.93648e-09 9.53836e-07)
(0.723644 2.13305e-07 -4.91361e-07)
(0.72367 3.16369e-08 1.69688e-07)
(0.723661 -2.91692e-09 -4.93813e-08)
(0.72366 3.37706e-08 6.44205e-08)
(0.723663 2.6523e-08 -6.93795e-08)
(0.723661 8.78471e-09 6.64491e-08)
(0.723661 4.79625e-09 -6.69724e-08)
(0.723661 4.25529e-09 5.36966e-08)
(0.72366 1.09063e-07 -7.84079e-10)
(0.723664 -4.73454e-08 -2.49674e-08)
(0.723664 2.18876e-07 4.02519e-08)
(0.723664 -2.13862e-07 1.4307e-08)
(0.723666 1.0762e-07 -6.37279e-08)
(0.723661 -1.53385e-07 5.65705e-08)
(0.723661 7.47894e-08 -1.01566e-07)
(0.723665 1.45386e-08 1.07235e-07)
(0.723666 3.10508e-08 -1.08476e-07)
(0.723661 -1.05282e-07 7.21661e-08)
(0.72366 3.06996e-08 -6.31527e-08)
(0.72366 -3.02871e-08 3.95984e-08)
(0.723654 7.08555e-08 2.80004e-09)
(0.723661 -2.10904e-08 -1.0771e-07)
(0.723651 9.95801e-08 1.1908e-07)
(0.723663 7.50084e-08 -2.1779e-07)
(0.72366 8.1618e-08 3.51391e-07)
(0.723678 -6.3816e-09 -3.72558e-07)
(0.723673 -1.40832e-07 3.06355e-07)
(0.723675 4.09307e-10 -2.93492e-07)
(0.723669 -2.07675e-07 4.3002e-07)
(0.736392 -0.011096 0.00969907)
(0.754635 -0.00202516 0.00163465)
(0.614467 -0.000229912 -0.000113799)
(0.630459 0.000122862 -7.397e-05)
(0.638716 1.1204e-05 1.43277e-05)
(0.637482 9.08303e-06 -5.40281e-06)
(0.638398 5.406e-06 -2.41883e-06)
(0.638544 -3.00954e-07 9.26423e-07)
(0.63847 3.49059e-07 -4.67283e-07)
(0.638499 1.00373e-09 1.79336e-07)
(0.63849 1.73228e-08 -5.06464e-08)
(0.638489 1.92385e-08 6.9182e-08)
(0.638492 4.86733e-08 -6.97215e-08)
(0.638491 -1.20397e-08 6.9294e-08)
(0.638491 2.01512e-08 -7.54453e-08)
(0.638491 -1.79222e-08 5.47014e-08)
(0.63849 9.94914e-08 -6.76875e-10)
(0.638494 -2.7827e-08 -1.94449e-08)
(0.638494 1.52332e-07 2.05747e-08)
(0.638494 -1.54674e-07 3.1244e-08)
(0.638496 8.23018e-08 -7.51733e-08)
(0.638491 -1.24161e-07 6.47075e-08)
(0.638492 8.04075e-08 -9.96504e-08)
(0.638496 5.72187e-09 1.09499e-07)
(0.638497 2.82803e-08 -1.14967e-07)
(0.638492 -9.58921e-08 7.75764e-08)
(0.638491 3.00543e-08 -7.46933e-08)
(0.638491 -3.37537e-08 3.64557e-08)
(0.638486 6.17769e-08 2.43855e-09)
(0.638494 1.1431e-08 -1.10438e-07)
(0.638484 4.08123e-08 1.08866e-07)
(0.638496 1.38778e-07 -2.0947e-07)
(0.638494 1.19379e-08 3.82528e-07)
(0.638512 1.12713e-07 -3.62995e-07)
(0.638506 -2.39872e-07 2.86667e-07)
(0.638507 6.72441e-08 -2.98477e-07)
(0.638499 -2.77373e-07 4.41748e-07)
(0.634043 -0.0126684 0.0097698)
(0.604785 -0.00214712 0.0016063)
(0.46413 -0.000111695 -0.000129057)
(0.48397 0.000117947 -6.07578e-05)
(0.49146 -4.24435e-07 1.38764e-05)
(0.490083 6.03974e-06 -4.74654e-06)
(0.491019 4.1049e-06 -1.81945e-06)
(0.491144 -7.01084e-07 7.93747e-07)
(0.491074 3.60846e-07 -3.93551e-07)
(0.491106 -4.94401e-08 1.60937e-07)
(0.491097 2.33905e-08 -4.65572e-08)
(0.491098 -1.10449e-08 6.02519e-08)
(0.491101 5.20814e-08 -5.89393e-08)
(0.4911 -4.13512e-08 6.0081e-08)
(0.4911 3.92241e-08 -6.55345e-08)
(0.4911 -3.76257e-08 4.18034e-08)
(0.491099 6.47272e-08 -1.03834e-09)
(0.491103 -1.10353e-08 -1.30809e-08)
(0.491103 6.73692e-08 1.12606e-08)
(0.491103 -7.33501e-08 2.84808e-08)
(0.491105 4.21324e-08 -6.36808e-08)
(0.491101 -8.40791e-08 5.37438e-08)
(0.491102 6.87062e-08 -8.10888e-08)
(0.491105 -1.55432e-09 9.09301e-08)
(0.491106 1.67237e-08 -9.62434e-08)
(0.491102 -7.56439e-08 6.36123e-08)
(0.4911 2.87392e-08 -6.47675e-08)
(0.491101 -4.17852e-08 2.17068e-08)
(0.491097 3.10807e-08 1.6287e-09)
(0.491105 2.66992e-08 -1.0179e-07)
(0.491096 -2.99876e-08 9.16281e-08)
(0.491108 1.72293e-07 -1.86424e-07)
(0.491106 -7.47247e-08 3.40155e-07)
(0.491122 2.21014e-07 -2.95916e-07)
(0.491116 -2.61096e-07 2.48941e-07)
(0.491116 1.68244e-07 -2.65025e-07)
(0.491108 -3.08023e-07 3.80751e-07)
(0.371097 -0.00641737 0.00641741)
(0.314231 -0.000766074 0.000766087)
(0.219066 9.26381e-05 -9.27532e-05)
(0.236513 2.25168e-05 -2.24706e-05)
(0.240297 -8.45375e-06 8.56769e-06)
(0.239163 3.0344e-06 -3.05838e-06)
(0.23984 6.48779e-07 -5.9677e-07)
(0.239892 -4.75551e-07 3.32402e-07)
(0.239845 2.19493e-07 -2.03892e-07)
(0.23987 -7.36171e-08 6.78399e-08)
(0.239863 2.25648e-08 -2.97745e-08)
(0.239864 -1.98503e-08 1.74896e-08)
(0.239866 2.26616e-08 -2.39326e-08)
(0.239865 -2.6633e-08 1.9369e-08)
(0.239865 2.35266e-08 -1.80528e-08)
(0.239865 -2.17667e-08 1.32324e-08)
(0.239865 2.27627e-08 -9.06301e-09)
(0.239867 -7.22313e-09 -3.09861e-09)
(0.239868 2.42895e-08 6.0589e-09)
(0.239867 -2.51398e-08 3.1014e-09)
(0.239868 1.72542e-08 -1.72837e-08)
(0.239866 -3.57909e-08 1.56444e-08)
(0.239866 2.30015e-08 -2.58369e-08)
(0.239868 -8.32183e-09 2.74048e-08)
(0.239869 1.38132e-08 -2.79621e-08)
(0.239867 -2.85204e-08 1.68894e-08)
(0.239865 1.44172e-08 -1.67421e-08)
(0.239866 -1.8988e-08 2.98082e-09)
(0.239863 -8.8795e-10 2.38914e-10)
(0.239868 2.00063e-08 -3.97919e-08)
(0.239863 -4.22233e-08 4.34795e-08)
(0.239871 8.64313e-08 -7.5502e-08)
(0.23987 -8.02923e-08 1.01582e-07)
(0.23988 1.32235e-07 -1.09239e-07)
(0.239877 -1.27418e-07 1.25231e-07)
(0.239876 1.25451e-07 -9.69171e-08)
(0.239871 -1.52468e-07 1.23525e-07)
(0.634043 0.00976974 0.0126684)
(0.604784 0.00160634 0.00214717)
(0.464128 -0.000128986 0.000111556)
(0.48397 -6.06849e-05 -0.000117959)
(0.491462 1.4119e-05 6.32041e-07)
(0.490084 -5.06113e-06 -6.02751e-06)
(0.491018 -1.79421e-06 -4.0791e-06)
(0.491144 7.80331e-07 4.66259e-07)
(0.491075 -3.61381e-07 -3.49997e-07)
(0.491106 1.33085e-07 5.68696e-08)
(0.491097 -2.78069e-08 -3.57184e-08)
(0.491098 5.28247e-08 1.39954e-08)
(0.491101 -5.71507e-08 -5.79748e-08)
(0.4911 6.44103e-08 3.04319e-08)
(0.4911 -6.91775e-08 -2.76412e-08)
(0.4911 3.13989e-08 2.89302e-08)
(0.491099 5.30292e-08 -2.07035e-08)
(0.491103 -4.72952e-08 -2.27672e-08)
(0.491103 1.52835e-07 3.51168e-08)
(0.491103 -9.74058e-08 -1.162e-08)
(0.491105 1.78927e-08 -1.71868e-08)
(0.491101 -4.30485e-08 1.46656e-08)
(0.491102 -8.91578e-08 -5.23958e-08)
(0.491105 8.71225e-08 3.49775e-08)
(0.491106 -5.8695e-08 -3.6976e-08)
(0.491102 2.7672e-08 2.73286e-08)
(0.4911 -3.90402e-08 -1.62551e-08)
(0.491101 -7.23592e-09 6.6759e-09)
(0.491097 -3.79713e-09 -8.66862e-09)
(0.491105 -1.18966e-07 -8.15904e-08)
(0.491097 1.01407e-07 6.78676e-08)
(0.491108 -2.21292e-07 -1.66812e-07)
(0.491106 3.45394e-07 1.44268e-07)
(0.491121 -2.7375e-07 -2.14079e-07)
(0.491116 2.54117e-07 2.55472e-07)
(0.491115 -2.76574e-07 -1.26744e-07)
(0.491107 4.17822e-07 2.34619e-07)
(1.20313 0.0209305 0.0209304)
(1.30755 0.00509663 0.00509649)
(1.09331 0.00039633 0.000396116)
(1.10441 -0.000255426 -0.000255253)
(1.11965 -2.71367e-05 -2.70327e-05)
(1.11874 -1.15709e-05 -1.14468e-05)
(1.11992 -8.44402e-06 -8.50316e-06)
(1.12022 2.26897e-07 2.19792e-07)
(1.12013 -5.17251e-07 -5.23828e-07)
(1.12016 7.09605e-08 6.81169e-08)
(1.12015 -5.73482e-08 -5.99775e-08)
(1.12015 1.2794e-08 9.44028e-09)
(1.12015 -1.06591e-07 -1.0422e-07)
(1.12015 -1.51719e-08 -1.36819e-08)
(1.12015 1.02026e-08 8.71731e-09)
(1.12015 7.48721e-08 6.30122e-08)
(1.12015 -1.71889e-07 -1.51939e-07)
(1.12015 5.6882e-08 4.87238e-08)
(1.12015 -2.89586e-07 -2.3333e-07)
(1.12016 2.31578e-07 2.30486e-07)
(1.12016 -1.41617e-07 -1.48119e-07)
(1.12015 1.84285e-07 1.83818e-07)
(1.12015 5.73338e-08 1.80906e-10)
(1.12016 2.0464e-08 3.10736e-08)
(1.12016 -1.36008e-07 -1.21015e-07)
(1.12015 3.42715e-08 4.08491e-08)
(1.12015 -3.98211e-08 -4.21275e-08)
(1.12015 8.03482e-08 7.21241e-08)
(1.12015 -3.03623e-08 -3.96934e-08)
(1.12016 -6.87625e-08 -6.81396e-08)
(1.12015 6.48936e-08 5.44537e-08)
(1.12016 -2.02269e-07 -2.01359e-07)
(1.12016 8.37597e-08 7.19841e-08)
(1.12018 -2.77177e-07 -2.85699e-07)
(1.12017 3.64209e-07 3.79202e-07)
(1.12017 -1.2139e-07 -1.21441e-07)
(1.12016 3.2955e-07 3.38791e-07)
(1.45364 0.0198064 0.0229194)
(1.70514 0.00567809 0.00608185)
(1.50775 0.000785765 0.000657891)
(1.5044 -0.000260111 -0.000302449)
(1.51966 -6.91085e-05 -5.46741e-05)
(1.51943 -2.27278e-05 -1.85213e-05)
(1.52046 -1.22142e-05 -1.15868e-05)
(1.52078 -9.57568e-07 -1.68759e-07)
(1.5207 -4.27943e-07 -5.72244e-07)
(1.52071 5.50792e-08 7.97145e-08)
(1.5207 -2.02639e-08 -6.36428e-08)
(1.5207 -1.1447e-08 7.16345e-09)
(1.5207 -1.19713e-07 -1.30824e-07)
(1.5207 -1.4837e-08 -2.89143e-09)
(1.5207 -2.28853e-08 -6.22095e-09)
(1.5207 5.98864e-08 6.50996e-08)
(1.5207 -9.62744e-08 -1.28216e-07)
(1.52071 -6.83932e-09 1.18379e-08)
(1.5207 -1.38878e-07 -1.36427e-07)
(1.52071 9.75478e-08 1.57919e-07)
(1.52071 -8.53102e-08 -1.17745e-07)
(1.5207 5.03817e-08 1.34235e-07)
(1.5207 8.21489e-08 -5.38477e-08)
(1.52071 1.40789e-08 5.51127e-08)
(1.52071 -1.26841e-07 -1.2332e-07)
(1.5207 -2.50341e-08 4.08328e-08)
(1.5207 -4.65247e-08 -3.21653e-08)
(1.5207 9.36553e-09 5.3668e-08)
(1.5207 -4.40318e-08 -6.14112e-08)
(1.52071 -1.71749e-07 -1.14558e-07)
(1.52069 4.04959e-08 5.36782e-08)
(1.52071 -2.26446e-07 -2.78794e-07)
(1.5207 2.18366e-07 1.16938e-07)
(1.52072 -1.70815e-07 -3.32677e-07)
(1.52071 3.1896e-07 4.7761e-07)
(1.52072 1.3342e-08 -1.20671e-07)
(1.52072 3.12585e-07 4.37269e-07)
(1.55893 0.0129848 0.0231251)
(1.91354 0.00405896 0.00598964)
(1.75577 0.000753715 0.000763591)
(1.7468 -0.000161514 -0.000305744)
(1.75924 -6.87806e-05 -6.78119e-05)
(1.75878 -2.38335e-05 -2.42911e-05)
(1.75954 -1.11504e-05 -1.40125e-05)
(1.7598 -1.42801e-06 -6.04786e-07)
(1.75972 -2.78366e-07 -5.68589e-07)
(1.75972 6.82244e-08 9.80229e-08)
(1.75972 3.91227e-09 -5.58528e-08)
(1.75971 -1.8823e-08 3.88104e-10)
(1.75972 -9.44737e-08 -1.40503e-07)
(1.75971 -2.28324e-08 -5.26138e-09)
(1.75971 -1.19919e-08 -8.86446e-09)
(1.75972 5.0768e-08 6.14718e-08)
(1.75971 -8.83448e-08 -1.22237e-07)
(1.75972 1.92001e-09 -3.24352e-09)
(1.75971 -1.58456e-07 -9.57369e-08)
(1.75972 6.67805e-08 1.16303e-07)
(1.75972 -6.58416e-08 -9.01894e-08)
(1.75971 2.21683e-08 9.77991e-08)
(1.75971 1.7345e-07 -6.37115e-08)
(1.75972 -6.85824e-09 5.22881e-08)
(1.75972 -1.25523e-07 -1.1272e-07)
(1.75971 -7.13987e-08 3.13084e-08)
(1.75971 -3.8747e-08 -2.30753e-08)
(1.75971 -3.69276e-09 3.64161e-08)
(1.7597 -2.57533e-08 -7.92688e-08)
(1.75971 -1.61954e-07 -1.32549e-07)
(1.7597 3.02085e-08 3.7504e-08)
(1.75971 -1.46851e-07 -3.02548e-07)
(1.7597 1.86236e-07 1.11423e-07)
(1.75972 -4.76775e-08 -3.16864e-07)
(1.75972 1.95182e-07 5.12764e-07)
(1.75973 9.75046e-08 -8.87097e-08)
(1.75973 1.24188e-07 4.57169e-07)
(1.59652 0.00446275 0.0230257)
(2.0015 0.00144467 0.00571504)
(1.87069 0.00030402 0.000768497)
(1.86162 -5.16682e-05 -0.000303341)
(1.8721 -2.79724e-05 -7.03993e-05)
(1.87115 -9.85193e-06 -2.68665e-05)
(1.87166 -4.4858e-06 -1.54196e-05)
(1.87187 -7.36438e-07 -8.8239e-07)
(1.87179 -1.27809e-07 -5.59556e-07)
(1.87179 4.88553e-08 1.19005e-07)
(1.87179 8.07126e-09 -4.72211e-08)
(1.87178 -5.1331e-09 3.2579e-10)
(1.87179 -4.55134e-08 -1.4444e-07)
(1.87178 -1.51622e-08 -5.45575e-09)
(1.87178 4.90665e-10 -1.1436e-08)
(1.87178 4.12361e-08 5.97829e-08)
(1.87178 -5.9695e-08 -1.11746e-07)
(1.87178 2.04527e-08 -1.65176e-08)
(1.87178 -1.65596e-07 -5.86088e-08)
(1.87179 3.95507e-08 7.07625e-08)
(1.87179 -5.17824e-08 -6.07202e-08)
(1.87178 1.26103e-08 6.28753e-08)
(1.87178 2.51102e-07 -6.02542e-08)
(1.87179 -2.07119e-09 5.11966e-08)
(1.87179 -1.27125e-07 -1.01991e-07)
(1.87178 -1.02148e-07 2.01665e-08)
(1.87178 -3.42767e-08 -1.61719e-08)
(1.87178 8.21839e-12 2.14323e-08)
(1.87177 2.42323e-08 -8.42208e-08)
(1.87178 -1.1861e-07 -1.45518e-07)
(1.87176 6.3177e-08 3.79272e-08)
(1.87177 -4.21877e-08 -3.17091e-07)
(1.87177 1.8777e-07 1.23656e-07)
(1.87179 2.32371e-08 -3.13436e-07)
(1.87178 3.18069e-08 5.27887e-07)
(1.87179 7.59592e-08 -8.13774e-08)
(1.87179 -5.87154e-08 4.7094e-07)
(1.59652 -0.00446218 0.0230257)
(2.0015 -0.00144446 0.00571506)
(1.87069 -0.000304098 0.000768439)
(1.86162 5.06542e-05 -0.000303345)
(1.8721 2.71341e-05 -7.02957e-05)
(1.87114 1.08862e-05 -2.69437e-05)
(1.87166 4.77417e-06 -1.54225e-05)
(1.87187 4.72164e-07 -8.9601e-07)
(1.87179 1.82132e-08 -5.55085e-07)
(1.87179 -4.34198e-09 1.25362e-07)
(1.87179 -5.51306e-09 -4.63829e-08)
(1.87178 1.12802e-08 4.49464e-09)
(1.87179 1.22594e-08 -1.43119e-07)
(1.87178 -8.83352e-09 -3.37139e-09)
(1.87178 1.9996e-08 -1.09565e-08)
(1.87178 2.89723e-08 6.11392e-08)
(1.87178 -2.37448e-08 -9.95053e-08)
(1.87178 4.04308e-08 -2.92689e-08)
(1.87178 -1.54132e-07 -2.0449e-08)
(1.87179 1.50025e-08 2.22209e-08)
(1.87179 -3.75372e-08 -3.16359e-08)
(1.87178 8.60982e-09 3.22572e-08)
(1.87178 2.98925e-07 -5.0474e-08)
(1.87179 1.47207e-08 5.39859e-08)
(1.87179 -1.22362e-07 -9.24333e-08)
(1.87178 -1.22137e-07 7.19989e-09)
(1.87178 -2.24086e-08 -6.82485e-09)
(1.87178 1.09794e-08 1.24761e-08)
(1.87177 7.88723e-08 -7.71425e-08)
(1.87178 -4.81105e-08 -1.52111e-07)
(1.87176 9.88957e-08 5.52705e-08)
(1.87177 8.51668e-08 -3.23889e-07)
(1.87177 1.60862e-07 1.33976e-07)
(1.87179 8.01832e-08 -3.3021e-07)
(1.87178 -1.4375e-07 5.36148e-07)
(1.87179 3.47093e-08 -9.01384e-08)
(1.87179 -2.50609e-07 4.67405e-07)
(1.55893 -0.0129843 0.0231251)
(1.91355 -0.00405877 0.00598971)
(1.75578 -0.000753834 0.000763457)
(1.7468 0.000160698 -0.00030575)
(1.75924 6.80431e-05 -6.75296e-05)
(1.75878 2.47795e-05 -2.45109e-05)
(1.75954 1.1431e-05 -1.40253e-05)
(1.7598 1.11609e-06 -6.44879e-07)
(1.75972 1.8772e-07 -5.50914e-07)
(1.75972 -2.94008e-08 1.16829e-07)
(1.75972 -4.76635e-09 -5.2908e-08)
(1.75971 2.41581e-08 1.22934e-08)
(1.75972 6.43208e-08 -1.36844e-07)
(1.75971 -1.33689e-08 4.63104e-10)
(1.75971 4.15934e-08 -7.96972e-09)
(1.75971 4.90687e-09 6.45218e-08)
(1.75971 1.3171e-08 -8.64769e-08)
(1.75972 5.3118e-08 -3.9411e-08)
(1.75972 -1.28242e-07 1.28826e-08)
(1.75972 -1.61734e-09 -2.00921e-08)
(1.75972 -2.29488e-08 -8.74605e-09)
(1.75971 1.03167e-09 1.13747e-08)
(1.75971 3.03017e-07 -3.84266e-08)
(1.75972 2.93743e-08 6.05372e-08)
(1.75972 -1.09216e-07 -8.66697e-08)
(1.75971 -1.28863e-07 -3.77342e-09)
(1.75971 -6.52539e-09 2.45205e-09)
(1.75971 1.0891e-08 9.8855e-09)
(1.7597 1.10485e-07 -5.97863e-08)
(1.75971 1.60481e-08 -1.53238e-07)
(1.7597 9.6531e-08 8.42273e-08)
(1.75971 1.97194e-07 -3.22184e-07)
(1.7597 1.07185e-07 1.44874e-07)
(1.75973 1.61969e-07 -3.62071e-07)
(1.75972 -3.03271e-07 5.3439e-07)
(1.75973 2.32568e-08 -1.14329e-07)
(1.75973 -4.04224e-07 4.5056e-07)
(1.45364 -0.019806 0.0229194)
(1.70514 -0.00567797 0.00608197)
(1.50776 -0.000785966 0.00065775)
(1.5044 0.000259629 -0.000302434)
(1.51966 6.85568e-05 -5.42775e-05)
(1.51943 2.35061e-05 -1.88564e-05)
(1.52047 1.25128e-05 -1.16072e-05)
(1.52078 5.60402e-07 -2.45137e-07)
(1.5207 3.65781e-07 -5.31431e-07)
(1.52071 -3.7372e-08 1.05908e-07)
(1.5207 1.32424e-08 -5.8828e-08)
(1.5207 1.18916e-08 2.43622e-08)
(1.5207 9.77574e-08 -1.26839e-07)
(1.5207 -4.59092e-08 6.63603e-09)
(1.5207 7.17504e-08 -7.5193e-09)
(1.5207 -3.34627e-08 6.98267e-08)
(1.5207 3.85938e-08 -7.25319e-08)
(1.52071 5.03977e-08 -4.18628e-08)
(1.52071 -9.23672e-08 3.1417e-08)
(1.52071 -1.2231e-08 -4.61121e-08)
(1.52071 -3.86346e-09 3.40928e-09)
(1.5207 -2.4914e-08 4.66607e-09)
(1.5207 2.64729e-07 -2.41892e-08)
(1.52071 2.82246e-08 6.97758e-08)
(1.52072 -8.02121e-08 -8.70776e-08)
(1.5207 -1.32253e-07 -8.28674e-09)
(1.5207 2.00593e-08 5.69188e-09)
(1.5207 -1.34268e-08 1.62008e-08)
(1.5207 9.84244e-08 -3.57357e-08)
(1.52071 5.91652e-08 -1.42267e-07)
(1.52069 2.84975e-08 1.16977e-07)
(1.52071 2.91654e-07 -3.04472e-07)
(1.5207 -1.58812e-08 1.63743e-07)
(1.52073 3.05563e-07 -3.96881e-07)
(1.52072 -4.25564e-07 5.05779e-07)
(1.52072 1.25854e-07 -1.57175e-07)
(1.52072 -5.31207e-07 4.27572e-07)
(1.20313 -0.0209301 0.0209303)
(1.30755 -0.00509665 0.00509666)
(1.09331 -0.00039665 0.000396051)
(1.10441 0.000255241 -0.000255182)
(1.11964 2.63415e-05 -2.65097e-05)
(1.11874 1.25292e-05 -1.19759e-05)
(1.11993 8.75236e-06 -8.49959e-06)
(1.12022 -5.64825e-07 8.33507e-08)
(1.12013 4.62782e-07 -4.48795e-07)
(1.12016 -5.09678e-08 8.24477e-08)
(1.12015 4.2435e-08 -5.2386e-08)
(1.12015 -5.97354e-09 2.55776e-08)
(1.12015 9.92152e-08 -1.03488e-07)
(1.12015 -7.67324e-08 -6.66616e-09)
(1.12015 6.63087e-08 6.83359e-09)
(1.12015 -5.60872e-08 6.47601e-08)
(1.12015 4.89313e-08 -5.97168e-08)
(1.12015 3.17114e-08 -3.06251e-08)
(1.12016 -9.81622e-08 3.16834e-08)
(1.12016 3.87923e-08 -6.06332e-08)
(1.12016 -2.63783e-08 2.00095e-08)
(1.12015 -2.71175e-08 -7.56272e-09)
(1.12015 1.88018e-07 9.15417e-09)
(1.12016 3.27158e-08 6.28978e-08)
(1.12016 -8.17531e-08 -7.50796e-08)
(1.12015 -9.58314e-08 -2.23433e-08)
(1.12015 1.14933e-08 1.0906e-08)
(1.12015 -4.21038e-08 1.6377e-08)
(1.12015 5.54267e-08 -2.03843e-08)
(1.12016 4.72392e-08 -1.0263e-07)
(1.12015 -8.06453e-08 1.11558e-07)
(1.12016 3.22857e-07 -2.31426e-07)
(1.12016 -2.81703e-08 1.27694e-07)
(1.12018 3.9589e-07 -3.39414e-07)
(1.12017 -4.90133e-07 4.06123e-07)
(1.12017 2.59192e-07 -1.52142e-07)
(1.12016 -4.77736e-07 3.41374e-07)
(0.634043 -0.00976976 0.0126685)
(0.604785 -0.00160626 0.00214716)
(0.46413 0.00012894 0.00011139)
(0.48397 6.07929e-05 -0.000117883)
(0.49146 -1.36713e-05 7.39909e-07)
(0.490083 4.69956e-06 -6.0559e-06)
(0.491019 1.87895e-06 -4.07574e-06)
(0.491143 -1.02026e-06 3.73845e-07)
(0.491074 4.04456e-07 -3.20254e-07)
(0.491106 -1.67312e-07 7.24821e-08)
(0.491097 3.62612e-08 -3.79175e-08)
(0.491097 -6.3103e-08 2.14797e-08)
(0.491101 5.64066e-08 -5.54911e-08)
(0.4911 -6.66316e-08 2.8212e-08)
(0.4911 7.25275e-08 -2.42e-08)
(0.4911 -5.6538e-08 2.81389e-08)
(0.491099 3.66648e-08 -1.88407e-08)
(0.491103 -1.17143e-08 -2.70066e-08)
(0.491103 6.97559e-08 4.18193e-08)
(0.491103 -8.48638e-08 -3.09447e-08)
(0.491105 7.14243e-08 -1.13491e-08)
(0.491101 -1.00603e-07 7.56593e-09)
(0.491102 6.11472e-08 -3.93968e-08)
(0.491105 -5.31472e-08 4.55117e-08)
(0.491106 7.77293e-08 -4.66699e-08)
(0.491102 -9.09879e-08 2.14011e-08)
(0.4911 7.32497e-08 -1.95229e-08)
(0.491101 -5.17574e-08 3.24859e-09)
(0.491097 -2.90958e-11 -3.08588e-09)
(0.491104 6.48406e-08 -8.79716e-08)
(0.491096 -8.50357e-08 8.34977e-08)
(0.491108 1.97145e-07 -1.56386e-07)
(0.491106 -2.98366e-07 1.59949e-07)
(0.491122 3.29075e-07 -2.2704e-07)
(0.491116 -2.50315e-07 2.5615e-07)
(0.491116 3.08908e-07 -1.30975e-07)
(0.491107 -4.29946e-07 2.17442e-07)
(0.736393 0.00969901 0.011096)
(0.754635 0.00163464 0.00202533)
(0.614465 -0.000113793 0.000229767)
(0.630459 -7.38579e-05 -0.000122984)
(0.638719 1.46359e-05 -1.07004e-05)
(0.637483 -5.75782e-06 -9.1628e-06)
(0.638397 -2.34171e-06 -5.52521e-06)
(0.638544 8.54414e-07 1.77102e-08)
(0.63847 -4.33137e-07 -3.47915e-07)
(0.638499 1.33515e-07 4.51799e-08)
(0.63849 -3.47329e-08 -3.94645e-08)
(0.63849 5.3932e-08 3.79743e-10)
(0.638493 -6.7456e-08 -6.50998e-08)
(0.638491 6.69825e-08 1.90349e-08)
(0.638491 -7.21517e-08 -1.93395e-08)
(0.638491 4.17294e-08 1.82166e-08)
(0.63849 5.81114e-08 7.96396e-09)
(0.638494 -5.73358e-08 -5.52819e-08)
(0.638494 1.81537e-07 1.31178e-07)
(0.638494 -1.06888e-07 -9.20082e-08)
(0.638496 1.39476e-08 2.00241e-08)
(0.638492 -4.27681e-08 -5.77526e-08)
(0.638492 -1.06837e-07 -5.75244e-08)
(0.638496 1.02251e-07 3.6452e-08)
(0.638497 -6.83875e-08 -2.00668e-08)
(0.638492 3.46203e-08 -5.69202e-09)
(0.638491 -4.47549e-08 3.98423e-09)
(0.638491 9.59379e-09 -3.37459e-08)
(0.638486 -2.54727e-09 -1.0279e-08)
(0.638494 -1.14359e-07 -1.19326e-07)
(0.638484 1.24268e-07 6.37904e-08)
(0.638497 -2.34097e-07 -1.6643e-07)
(0.638493 3.55332e-07 1.44928e-07)
(0.638511 -3.34553e-07 -1.67654e-07)
(0.638506 2.86849e-07 2.64493e-07)
(0.638506 -2.93686e-07 -4.25969e-08)
(0.638499 4.53723e-07 1.61589e-07)
(1.45364 0.0229195 0.0198062)
(1.70514 0.00608198 0.00567785)
(1.50775 0.000658075 0.000785378)
(1.5044 -0.000302627 -0.000259777)
(1.51966 -5.47158e-05 -6.8997e-05)
(1.51943 -1.86351e-05 -2.24764e-05)
(1.52046 -1.15431e-05 -1.23053e-05)
(1.52078 -1.67287e-07 -9.69186e-07)
(1.5207 -5.71104e-07 -4.40956e-07)
(1.52071 8.00905e-08 5.44671e-08)
(1.5207 -6.39506e-08 -2.37108e-08)
(1.5207 1.02323e-08 -1.70882e-08)
(1.5207 -1.34925e-07 -1.13537e-07)
(1.5207 -3.5142e-09 -1.79659e-08)
(1.5207 -6.19571e-09 -1.98986e-08)
(1.5207 7.58975e-08 3.98981e-08)
(1.5207 -1.41378e-07 -6.57351e-08)
(1.52071 1.94377e-08 -2.20199e-08)
(1.5207 -1.71044e-07 -5.44861e-08)
(1.52071 1.55627e-07 9.62162e-08)
(1.52071 -1.12473e-07 -9.09538e-08)
(1.5207 1.31881e-07 4.66623e-08)
(1.5207 -8.65862e-09 -9.1947e-09)
(1.52071 4.32201e-08 3.39337e-08)
(1.52071 -1.32822e-07 -1.04061e-07)
(1.5207 3.23581e-08 -1.26204e-08)
(1.5207 -3.46975e-08 -4.2276e-08)
(1.5207 6.38024e-08 -1.18888e-08)
(1.5207 -5.76974e-08 -5.30278e-08)
(1.52071 -1.16049e-07 -1.74757e-07)
(1.52069 6.30562e-08 2.62549e-08)
(1.52071 -2.77036e-07 -2.29257e-07)
(1.5207 1.26208e-07 2.03605e-07)
(1.52072 -3.26404e-07 -1.90241e-07)
(1.52071 4.64812e-07 3.47617e-07)
(1.52072 -1.18557e-07 1.1286e-08)
(1.52072 4.2876e-07 3.30554e-07)
(1.78736 0.0225258 0.0225257)
(2.26524 0.00736855 0.00736831)
(2.11638 0.00130688 0.0013066)
(2.09454 -0.000280713 -0.000280399)
(2.10637 -0.000123137 -0.000123223)
(2.10654 -4.06862e-05 -4.04315e-05)
(2.10726 -1.78169e-05 -1.78733e-05)
(2.10755 -1.97979e-06 -1.96738e-06)
(2.10747 -4.77374e-07 -4.79986e-07)
(2.10747 9.06271e-08 9.7575e-08)
(2.10746 -1.98312e-08 -1.61223e-08)
(2.10746 -2.14109e-08 -2.63801e-08)
(2.10746 -1.54953e-07 -1.43709e-07)
(2.10745 -1.85193e-08 -2.56978e-08)
(2.10745 -3.1235e-08 -2.22651e-08)
(2.10746 6.34268e-08 4.54861e-08)
(2.10746 -5.84424e-08 -4.88665e-08)
(2.10746 -5.04593e-08 -6.16729e-08)
(2.10746 1.71836e-08 3.06187e-08)
(2.10746 2.98598e-08 5.14941e-08)
(2.10746 -6.55186e-08 -7.87054e-08)
(2.10746 -9.14763e-09 5.63717e-09)