/*--------------------------------*- C++ -*----------------------------------*\
  =========                 |
  \\      /  F ield         | OpenFOAM: The Open Source CFD Toolbox
   \\    /   O peration     | Website:  https://openfoam.org
    \\  /    A nd           | Version:  13
     \\/     M anipulation  |
\*---------------------------------------------------------------------------*/
FoamFile
{
    format      ascii;
    class       surfaceScalarField;
    location    "29";
    object      phi;
}
// * * * * * * * * * * * * * * * * * * * * * * * * * * * * * * * * * * * * * //

dimensions      [0 3 -1 0 0 0 0];

internalField   nonuniform List<scalar> 
10260
(
3.40079e-11
6.63463e-11
6.63462e-11
2.12922e-11
6.35799e-12
6.35799e-12
2.41972e-11
-1.45262e-12
-1.4526e-12
2.38608e-11
1.68113e-13
1.68119e-13
2.40058e-11
-7.22764e-14
-7.23047e-14
2.39939e-11
7.26089e-15
7.20383e-15
2.39792e-11
6.2142e-15
6.29035e-15
2.39852e-11
-3.13649e-15
-3.15225e-15
2.3987e-11
-9.91473e-16
-9.71953e-16
2.39851e-11
8.41854e-16
8.19586e-16
2.3987e-11
-1.00598e-15
-9.89897e-16
2.3986e-11
4.19241e-16
4.15376e-16
2.39868e-11
-4.11161e-16
-4.13233e-16
2.39859e-11
3.5925e-16
3.73493e-16
2.39866e-11
-2.86175e-16
-3.00798e-16
2.39861e-11
1.97304e-16
2.03341e-16
2.39868e-11
-3.35283e-16
-3.3865e-16
2.39864e-11
1.90047e-16
1.9275e-16
2.39866e-11
-9.01685e-17
-9.21868e-17
2.39865e-11
7.15565e-17
7.46724e-17
2.39867e-11
-1.39715e-16
-1.41921e-16
2.39863e-11
1.89232e-16
1.92975e-16
2.39868e-11
-2.36452e-16
-2.39351e-16
2.39864e-11
2.04129e-16
2.06908e-16
2.39867e-11
-1.53082e-16
-1.56203e-16
2.39865e-11
1.28666e-16
1.316e-16
2.39867e-11
-1.35985e-16
-1.39001e-16
2.39864e-11
1.00179e-16
1.04171e-16
2.39864e-11
-1.95996e-17
-2.01884e-17
2.3987e-11
-3.20564e-16
-3.10591e-16
2.3986e-11
4.99878e-16
4.83738e-16
2.39878e-11
-8.4701e-16
-8.36667e-16
2.39858e-11
9.94447e-16
9.84037e-16
2.39885e-11
-1.22678e-15
-1.21893e-15
2.39854e-11
1.49941e-15
1.49071e-15
2.39886e-11
-1.41352e-15
-1.40862e-15
1.49661e-15
1.48725e-15
6.08758e-11
6.95383e-11
1.02633e-10
4.6408e-11
8.28454e-12
1.25423e-11
4.88983e-11
-1.57866e-12
-2.36521e-12
4.90227e-11
-2.83344e-14
7.16936e-14
4.91134e-11
-6.75731e-14
-9.41629e-14
4.91262e-11
2.90997e-15
-1.04287e-15
4.91006e-11
9.04548e-15
1.63586e-14
4.91079e-11
-5.10762e-15
-6.0715e-15
4.91105e-11
-1.97806e-15
-2.1342e-15
4.91083e-11
5.60964e-16
1.82942e-15
4.91103e-11
-1.49262e-15
-1.985e-15
4.91093e-11
1.60085e-16
8.71692e-16
4.91101e-11
-4.99624e-16
-7.92575e-16
4.91091e-11
2.41609e-16
7.27054e-16
4.91099e-11
-2.05508e-16
-5.99526e-16
4.91094e-11
5.81743e-17
3.92225e-16
4.91103e-11
-3.59425e-16
-6.46089e-16
4.91098e-11
1.78847e-16
3.6437e-16
4.911e-11
-6.0319e-17
-1.69934e-16
4.91099e-11
3.65153e-17
1.82865e-16
4.91102e-11
-1.56603e-16
-3.2602e-16
4.91097e-11
1.12303e-16
4.27007e-16
4.91102e-11
-2.31246e-16
-5.23318e-16
4.91098e-11
1.94407e-16
4.54409e-16
4.91101e-11
-1.13984e-16
-3.63379e-16
4.91099e-11
8.06198e-17
3.34075e-16
4.91101e-11
-1.32408e-16
-3.62436e-16
4.91097e-11
-3.1508e-17
2.49894e-16
4.91098e-11
-6.42059e-17
-6.99452e-17
4.91104e-11
-4.49076e-16
-6.49022e-16
4.91093e-11
4.72177e-16
9.73414e-16
4.91114e-11
-7.63641e-16
-1.71997e-15
4.91093e-11
9.76386e-16
2.07426e-15
4.91122e-11
-1.06031e-15
-2.47895e-15
4.91089e-11
1.59094e-15
3.04197e-15
4.91126e-11
-9.44688e-16
-2.92569e-15
1.25703e-15
3.15045e-15
7.43077e-11
5.25334e-11
1.09398e-10
6.15143e-11
6.67187e-12
1.4407e-11
6.352e-11
-1.09739e-12
-2.48785e-12
6.37777e-11
-1.88422e-13
-9.8048e-14
6.3848e-11
-4.34542e-14
-9.31037e-14
6.38683e-11
-2.36538e-15
-7.71675e-15
6.38408e-11
8.45379e-15
2.17067e-14
6.38474e-11
-4.65562e-15
-7.81866e-15
6.38501e-11
-1.99806e-15
-3.11732e-15
6.38477e-11
3.06579e-16
2.00116e-15
6.38496e-11
-1.35966e-15
-2.48853e-15
6.38485e-11
-2.66336e-17
8.72636e-16
6.38492e-11
-3.57315e-16
-9.35463e-16
6.38482e-11
1.24624e-16
7.53434e-16
6.38489e-11
-1.06189e-16
-6.1718e-16
6.38485e-11
-1.06777e-16
4.17486e-16
6.38493e-11
-2.45883e-16
-7.89781e-16
6.38489e-11
1.07763e-16
4.16084e-16
6.38491e-11
-9.70733e-18
-1.87816e-16
6.3849e-11
-1.59659e-17
1.98863e-16
6.38492e-11
-1.0205e-16
-3.83845e-16
6.38488e-11
4.42398e-18
4.90057e-16
6.38493e-11
-1.38959e-16
-6.1078e-16
6.38489e-11
9.86948e-17
5.4806e-16
6.38492e-11
-3.04221e-17
-4.28761e-16
6.38489e-11
-3.39724e-18
3.89211e-16
6.38491e-11
-7.88543e-17
-4.11222e-16
6.38487e-11
-1.5278e-16
3.22326e-16
6.38487e-11
-6.99683e-17
-1.05947e-16
6.38493e-11
-4.81594e-16
-6.80344e-16
6.38482e-11
3.31727e-16
1.09913e-15
6.38503e-11
-5.48359e-16
-1.86632e-15
6.38483e-11
7.67217e-16
2.20314e-15
6.38513e-11
-6.19878e-16
-2.80284e-15
6.3848e-11
1.2069e-15
3.47022e-15
6.38518e-11
-4.04317e-16
-3.15287e-15
6.70443e-16
3.47342e-15
8.14143e-11
2.77005e-11
1.10119e-10
7.02215e-11
3.55436e-12
1.43113e-11
7.21097e-11
-5.36395e-13
-2.45008e-12
7.22966e-11
-1.59018e-13
-2.16699e-13
7.23667e-11
-2.04567e-14
-9.17131e-14
7.23852e-11
-2.22121e-15
-1.15482e-14
7.23594e-11
3.55741e-15
2.44011e-14
7.23652e-11
-2.40421e-15
-8.80539e-15
7.23676e-11
-1.34522e-15
-3.44424e-15
7.23651e-11
3.13811e-16
1.87508e-15
7.23668e-11
-8.90501e-16
-2.66233e-15
7.23656e-11
-4.14473e-17
7.92064e-16
7.23663e-11
-1.49088e-16
-9.51061e-16
7.23652e-11
2.69773e-17
7.34301e-16
7.2366e-11
-2.89641e-17
-5.88245e-16
7.23655e-11
-1.55429e-16
3.46549e-16
7.23663e-11
-6.79899e-17
-8.36391e-16
7.23659e-11
1.10185e-17
4.39783e-16
7.23661e-11
3.82316e-17
-1.90809e-16
7.2366e-11
-3.99129e-17
1.8196e-16
7.23662e-11
-5.10034e-17
-3.73469e-16
7.23657e-11
-5.03349e-17
4.6398e-16
7.23662e-11
-3.77543e-17
-6.11757e-16
7.23658e-11
2.08384e-17
5.37445e-16
7.23662e-11
1.74434e-17
-4.10603e-16
7.23659e-11
-3.98871e-17
3.58029e-16
7.23661e-11
-5.46994e-17
-3.81345e-16
7.23656e-11
-1.75802e-16
2.8199e-16
7.23656e-11
5.30015e-18
-1.59831e-16
7.23661e-11
-4.42924e-16
-6.86039e-16
7.2365e-11
2.90409e-16
1.02229e-15
7.23671e-11
-3.44395e-16
-1.83569e-15
7.2365e-11
6.01704e-16
2.11572e-15
7.23681e-11
-3.40583e-16
-2.67848e-15
7.23649e-11
7.53357e-16
3.47484e-15
7.23688e-11
-1.18037e-16
-3.00246e-15
1.71884e-16
3.37346e-15
8.45309e-11
4.55315e-16
1.0987e-10
7.42431e-11
3.60045e-16
1.38427e-11
7.61319e-11
-7.63111e-16
-2.42528e-12
7.62441e-11
-1.68246e-16
-2.71413e-13
7.63129e-11
1.45916e-15
-8.94027e-14
7.63294e-11
2.29061e-15
-1.41021e-14
7.63052e-11
-3.83279e-15
2.54923e-14
7.63105e-11
3.8165e-16
-8.90159e-15
7.63127e-11
-3.03641e-16
-3.52498e-15
7.631e-11
3.94503e-16
1.85119e-15
7.63117e-11
-2.73545e-16
-2.70164e-15
7.63105e-11
1.94641e-17
7.70916e-16
7.63111e-11
7.35573e-17
-9.53172e-16
7.631e-11
-8.933e-17
7.4765e-16
7.63108e-11
6.90597e-17
-6.02713e-16
7.63103e-11
-1.15215e-16
3.02453e-16
7.63111e-11
1.10265e-16
-8.24304e-16
7.63107e-11
-7.93903e-17
4.37304e-16
7.63109e-11
6.67109e-17
-1.80054e-16
7.63108e-11
-4.2751e-17
1.73793e-16
7.6311e-11
-3.038e-18
-3.70146e-16
7.63105e-11
-6.17047e-17
4.38564e-16
7.6311e-11
6.69228e-17
-6.12254e-16
7.63105e-11
-2.71986e-17
5.13797e-16
7.63109e-11
3.65939e-17
-3.93599e-16
7.63106e-11
-5.4908e-17
3.48543e-16
7.63108e-11
-1.09067e-17
-4.03536e-16
7.63103e-11
-1.00896e-16
2.16672e-16
7.63103e-11
1.34463e-16
-2.0093e-16
7.63108e-11
-2.66139e-16
-7.72754e-16
7.63096e-11
3.03943e-16
9.66481e-16
7.63117e-11
-6.07588e-17
-1.88721e-15
7.63097e-11
2.82131e-16
2.23254e-15
7.63127e-11
-1.48545e-16
-2.59833e-15
7.63095e-11
2.25711e-16
3.49519e-15
7.63135e-11
9.15928e-17
-2.96682e-15
-3.93564e-16
3.45305e-15
8.45308e-11
-2.76997e-11
1.0987e-10
7.42432e-11
-3.55368e-12
1.38427e-11
7.61319e-11
5.35034e-13
-2.42542e-12
7.62441e-11
1.58688e-13
-2.71366e-13
7.6313e-11
2.317e-14
-8.92782e-14
7.63294e-11
6.73771e-15
-1.42202e-14
7.63051e-11
-1.09145e-14
2.53463e-14
7.63105e-11
3.13504e-15
-8.81509e-15
7.63126e-11
7.69805e-16
-3.49965e-15
7.631e-11
3.81278e-16
1.89351e-15
7.63117e-11
3.68429e-16
-2.71702e-15
7.63105e-11
6.37734e-17
7.85767e-16
7.63111e-11
2.78283e-16
-9.48448e-16
7.631e-11
-2.0458e-16
7.47083e-16
7.63108e-11
1.57908e-16
-5.92662e-16
7.63103e-11
-6.4641e-17
3.05428e-16
7.63111e-11
2.80318e-16
-8.27002e-16
7.63107e-11
-1.57613e-16
4.33839e-16
7.63109e-11
8.59374e-17
-1.7808e-16
7.63108e-11
-3.3923e-17
1.70282e-16
7.6311e-11
3.64649e-17
-3.65929e-16
7.63105e-11
-6.69808e-17
4.40132e-16
7.6311e-11
1.55257e-16
-6.02203e-16
7.63105e-11
-6.70263e-17
5.087e-16
7.63109e-11
4.53019e-17
-3.88047e-16
7.63106e-11
-5.27143e-17
3.38645e-16
7.63108e-11
1.74268e-17
-3.9132e-16
7.63103e-11
-2.53066e-17
2.23604e-16
7.63103e-11
2.32194e-16
-1.84999e-16
7.63108e-11
-5.90057e-17
-7.75917e-16
7.63096e-11
2.45169e-16
1.00757e-15
7.63117e-11
2.50655e-16
-1.89822e-15
7.63097e-11
-7.10734e-17
2.23161e-15
7.63127e-11
1.11959e-16
-2.64302e-15
7.63096e-11
-3.51989e-16
3.5197e-15
7.63135e-11
3.43806e-16
-2.99967e-15
-9.07133e-16
3.43602e-15
8.14143e-11
-5.25328e-11
1.1012e-10
7.02216e-11
-6.67131e-12
1.43113e-11
7.21097e-11
1.09637e-12
-2.45034e-12
7.22966e-11
1.88142e-13
-2.16598e-13
7.23668e-11
4.55986e-14
-9.13801e-14
7.23853e-11
6.65063e-15
-1.19327e-14
7.23594e-11
-1.48116e-14
2.39398e-14
7.23651e-11
5.2163e-15
-8.47583e-15
7.23675e-11
1.50605e-15
-3.35732e-15
7.2365e-11
1.28041e-16
1.99971e-15
7.23668e-11
9.06528e-16
-2.69596e-15
7.23656e-11
2.53619e-18
8.39419e-16
7.23663e-11
4.38786e-16
-9.39322e-16
7.23652e-11
-3.0527e-16
7.29882e-16
7.2366e-11
2.23087e-16
-5.61877e-16
7.23655e-11
-7.78954e-17
3.53002e-16
7.23663e-11
4.24014e-16
-8.3581e-16
7.23659e-11
-2.18968e-16
4.29856e-16
7.23661e-11
1.05179e-16
-1.84087e-16
7.2366e-11
-2.80982e-17
1.74548e-16
7.23662e-11
6.91047e-17
-3.65511e-16
7.23657e-11
-1.00067e-16
4.65963e-16
7.23662e-11
2.15063e-16
-5.88156e-16
7.23658e-11
-1.19348e-16
5.20576e-16
7.23662e-11
6.4757e-17
-3.96137e-16
7.23659e-11
-4.76413e-17
3.36247e-16
7.23661e-11
1.55903e-17
-3.63003e-16
7.23656e-11
-2.40662e-17
2.83946e-16
7.23656e-11
2.26606e-16
-1.23041e-16
7.23661e-11
9.89645e-17
-7.25523e-16
7.2365e-11
1.96086e-17
1.11915e-15
7.23671e-11
5.50746e-16
-1.88874e-15
7.23651e-11
-3.85133e-16
2.16618e-15
7.23681e-11
5.55893e-16
-2.78445e-15
7.23649e-11
-9.51873e-16
3.55041e-15
7.23688e-11
7.39352e-16
-3.09987e-15
-1.28665e-15
3.37453e-15
7.43077e-11
-6.95377e-11
1.09398e-10
6.15144e-11
-8.28414e-12
1.4407e-11
6.352e-11
1.57789e-12
-2.48799e-12
6.37777e-11
2.81719e-14
-9.79557e-14
6.38482e-11
6.89967e-14
-9.27179e-14
6.38685e-11
8.46786e-16
-8.24777e-15
6.38408e-11
-1.36401e-14
2.08402e-14
6.38473e-11
5.20143e-15
-7.12308e-15
6.385e-11
1.63489e-15
-3.00098e-15
6.38477e-11
-5.14436e-16
2.21088e-15
6.38496e-11
1.15447e-15
-2.53748e-15
6.38485e-11
-2.64929e-16
9.64898e-16
6.38492e-11
5.36036e-16
-9.38794e-16
6.38482e-11
-4.25312e-16
7.81863e-16
6.38489e-11
3.25633e-16
-6.30851e-16
6.38485e-11
-2.06725e-16
4.49125e-16
6.38494e-11
4.89152e-16
-7.95057e-16
6.38489e-11
-2.57073e-16
4.21312e-16
6.38491e-11
1.22886e-16
-1.89215e-16
6.3849e-11
-5.83684e-17
2.07998e-16
6.38492e-11
1.22019e-16
-3.94814e-16
6.38488e-11
-1.8474e-16
5.04746e-16
6.38493e-11
2.81216e-16
-6.10197e-16
6.38489e-11
-1.99142e-16
5.44702e-16
6.38492e-11
1.33944e-16
-4.34956e-16
6.38489e-11
-1.09297e-16
3.93642e-16
6.38491e-11
8.95218e-17
-4.40674e-16
6.38487e-11
-1.00897e-16
3.24144e-16
6.38488e-11
1.53558e-16
-1.02965e-16
6.38493e-11
2.43219e-16
-7.35541e-16
6.38482e-11
-2.94057e-16
1.14687e-15
6.38503e-11
8.7965e-16
-1.92399e-15
6.38483e-11
-8.52116e-16
2.31781e-15
6.38513e-11
1.1386e-15
-2.875e-15
6.3848e-11
-1.51484e-15
3.55051e-15
6.38518e-11
1.37107e-15
-3.2538e-15
-1.76018e-15
3.52199e-15
6.08758e-11
-6.63459e-11
1.02633e-10
4.6408e-11
-6.35769e-12
1.25421e-11
4.88983e-11
1.45213e-12
-2.36538e-12
4.90226e-11
-1.68104e-13
7.17372e-14
4.91136e-11
7.29402e-14
-9.36924e-14
4.91264e-11
-5.11229e-15
-6.81445e-16
4.91006e-11
-8.48774e-15
1.50025e-14
4.91078e-11
2.98787e-15
-5.60022e-15
4.91104e-11
9.22223e-16
-2.08415e-15
4.91083e-11
-1.03835e-15
1.87607e-15
4.91103e-11
8.51424e-16
-2.08391e-15
4.91093e-11
-5.31678e-16
8.95751e-16
4.91101e-11
4.09161e-16
-8.07955e-16
4.91091e-11
-4.85473e-16
6.62894e-16
4.91098e-11
3.65664e-16
-5.33834e-16
4.91094e-11
-2.78472e-16
4.10207e-16
4.91103e-11
4.00587e-16
-6.44943e-16
4.91098e-11
-2.22961e-16
3.62305e-16
4.911e-11
1.1261e-16
-1.70692e-16
4.91099e-11
-6.7342e-17
1.93726e-16
4.91102e-11
1.06552e-16
-3.43094e-16
4.91097e-11
-2.25157e-16
4.3689e-16
4.91102e-11
2.46914e-16
-5.12603e-16
4.91098e-11
-1.98371e-16
4.60077e-16
4.91101e-11
1.53686e-16
-3.69064e-16
4.91099e-11
-1.28195e-16
3.3391e-16
4.91101e-11
9.08185e-17
-3.73607e-16
4.91097e-11
-1.85977e-16
2.61275e-16
4.91098e-11
1.23368e-17
-4.98519e-17
4.91104e-11
2.50767e-16
-6.41057e-16
4.91093e-11
-5.18859e-16
1.02361e-15
4.91114e-11
9.78819e-16
-1.66562e-15
4.91093e-11
-1.00701e-15
2.0431e-15
4.91123e-11
1.40488e-15
-2.50084e-15
4.9109e-11
-1.54359e-15
3.05223e-15
4.91126e-11
1.7626e-15
-2.86257e-15
-1.69933e-15
3.06855e-15
3.40079e-11
6.63464e-11
2.12923e-11
6.35807e-12
2.41972e-11
-1.45292e-12
2.38608e-11
1.68247e-13
2.40059e-11
-7.19423e-14
2.3994e-11
7.99294e-15
2.39792e-11
5.22013e-15
2.39852e-11
-3.1381e-15
2.3987e-11
-9.00168e-16
2.39851e-11
6.6712e-16
2.39869e-11
-1.05866e-15
2.3986e-11
3.63572e-16
2.39868e-11
-4.16066e-16
2.39859e-11
3.03416e-16
2.39866e-11
-2.45056e-16
2.39861e-11
1.69376e-16
2.39868e-11
-3.15775e-16
2.39864e-11
1.80832e-16
2.39866e-11
-8.81933e-17
2.39865e-11
7.79667e-17
2.39867e-11
-1.59016e-16
2.39863e-11
1.82372e-16
2.39868e-11
-2.36149e-16
2.39864e-11
2.10097e-16
2.39867e-11
-1.59365e-16
2.39865e-11
1.33559e-16
2.39867e-11
-1.63897e-16
2.39864e-11
6.89535e-17
2.39864e-11
-3.84391e-17
2.3987e-11
-3.21262e-16
2.3986e-11
4.51782e-16
2.39878e-11
-7.60293e-16
2.39858e-11
9.39259e-16
2.39885e-11
-1.11388e-15
2.39854e-11
1.44803e-15
2.39887e-11
-1.23923e-15
1.41875e-15
6.08758e-11
1.02633e-10
6.95383e-11
4.6408e-11
1.25423e-11
8.28454e-12
4.88983e-11
-2.36525e-12
-1.57862e-12
4.90227e-11
7.16767e-14
-2.83139e-14
4.91134e-11
-9.41365e-14
-6.76235e-14
4.91262e-11
-8.57485e-16
2.712e-15
4.91006e-11
1.61958e-14
9.25e-15
4.91079e-11
-6.03551e-15
-5.16033e-15
4.91105e-11
-2.19923e-15
-1.89957e-15
4.91083e-11
1.87855e-15
4.88812e-16
4.91103e-11
-2.01666e-15
-1.4481e-15
4.91093e-11
8.78436e-16
1.47808e-16
4.91101e-11
-7.91019e-16
-5.03826e-16
4.91091e-11
6.97511e-16
2.69694e-16
4.91099e-11
-5.71485e-16
-2.33521e-16
4.91094e-11
3.83912e-16
7.13707e-17
4.91103e-11
-6.39077e-16
-3.68326e-16
4.91098e-11
3.59216e-16
1.86042e-16
4.911e-11
-1.6615e-16
-6.56222e-17
4.91099e-11
1.78051e-16
4.43511e-17
4.91102e-11
-3.23349e-16
-1.61865e-16
4.91097e-11
4.20729e-16
1.21388e-16
4.91102e-11
-5.18758e-16
-2.38479e-16
4.91098e-11
4.50973e-16
2.0058e-16
4.91101e-11
-3.59183e-16
-1.21116e-16
4.91099e-11
3.29748e-16
8.78435e-17
4.91101e-11
-3.57619e-16
-1.40612e-16
4.91097e-11
2.44537e-16
-2.35793e-17
4.91098e-11
-6.48405e-17
-6.98449e-17
4.91104e-11
-6.70868e-16
-4.19773e-16
4.91093e-11
1.00373e-15
4.26689e-16
4.91114e-11
-1.73589e-15
-7.35993e-16
4.91093e-11
2.09837e-15
9.43217e-16
4.91122e-11
-2.49554e-15
-1.0336e-15
4.91089e-11
3.05648e-15
1.56719e-15
4.91126e-11
-2.93492e-15
-9.25564e-16
3.16179e-15
1.24605e-15
1.2422e-10
1.23874e-10
1.23874e-10
1.10124e-10
1.9592e-11
1.95919e-11
1.10953e-10
-2.78131e-12
-2.78124e-12
1.11964e-10
-4.34352e-13
-4.34302e-13
1.12011e-10
-1.15824e-13
-1.15869e-13
1.12033e-10
-1.86381e-15
-2.32125e-15
1.12011e-10
1.8831e-14
1.91887e-14
1.12012e-10
-7.59552e-15
-7.6436e-15
1.12014e-10
-3.99092e-15
-3.84905e-15
1.12015e-10
6.58313e-16
5.49764e-16
1.12014e-10
-2.33386e-15
-2.27736e-15
1.12015e-10
6.52453e-17
5.88781e-17
1.12015e-10
-8.49296e-16
-8.63711e-16
1.12014e-10
3.62692e-16
4.22442e-16
1.12014e-10
-3.63149e-16
-4.20771e-16
1.12014e-10
6.31563e-17
9.82809e-17
1.12015e-10
-5.13531e-16
-5.4291e-16
1.12015e-10
2.00268e-16
2.18245e-16
1.12015e-10
-1.75543e-17
-2.98034e-17
1.12015e-10
5.56891e-17
7.25368e-17
1.12015e-10
-2.71149e-16
-2.81516e-16
1.12015e-10
1.29211e-16
1.49068e-16
1.12015e-10
-3.8009e-16
-3.92109e-16
1.12015e-10
2.72749e-16
2.81816e-16
1.12015e-10
-1.42992e-16
-1.53549e-16
1.12015e-10
1.34049e-16
1.44459e-16
1.12015e-10
-2.87586e-16
-2.97962e-16
1.12015e-10
-1.61694e-16
-1.48882e-16
1.12015e-10
-1.41417e-16
-1.53831e-16
1.12015e-10
-9.28867e-16
-8.70098e-16
1.12015e-10
6.95016e-16
6.23015e-16
1.12015e-10
-1.33621e-15
-1.29933e-15
1.12016e-10
1.85683e-15
1.79488e-15
1.12016e-10
-1.61354e-15
-1.58446e-15
1.12016e-10
2.62585e-15
2.60321e-15
1.12016e-10
-1.37216e-15
-1.35557e-15
2.28676e-15
2.27712e-15
1.59807e-10
1.00351e-10
1.39817e-10
1.5136e-10
1.79257e-11
2.45227e-11
1.50944e-10
-1.95786e-12
-2.89778e-12
1.52026e-10
-7.47338e-13
-8.68453e-13
1.52064e-10
-9.94382e-14
-1.44285e-13
1.52092e-10
-8.17331e-15
-9.85184e-15
1.5207e-10
1.84337e-14
2.76718e-14
1.52069e-10
-6.81022e-15
-9.57319e-15
1.5207e-10
-4.38987e-15
-5.50258e-15
1.52071e-10
1.53016e-16
4.08661e-16
1.5207e-10
-2.14271e-15
-2.90371e-15
1.5207e-10
-3.04903e-16
-1.16973e-16
1.5207e-10
-6.49145e-16
-1.05781e-15
1.52069e-10
1.62051e-16
4.20031e-16
1.52069e-10
-2.11415e-16
-4.23494e-16
1.52069e-10
-1.83566e-16
6.43225e-17
1.5207e-10
-3.26987e-16
-7.10707e-16
1.5207e-10
4.77119e-17
2.55019e-16
1.5207e-10
7.91684e-17
-2.6836e-17
1.5207e-10
-3.19542e-17
6.94399e-17
1.5207e-10
-1.98776e-16
-3.35226e-16
1.5207e-10
-3.38723e-17
1.61902e-16
1.5207e-10
-2.45693e-16
-4.74933e-16
1.5207e-10
1.50248e-16
3.40638e-16
1.5207e-10
-3.32876e-17
-1.79329e-16
1.5207e-10
2.80897e-17
1.64426e-16
1.5207e-10
-2.21156e-16
-3.42754e-16
1.5207e-10
-3.04183e-16
-1.6451e-16
1.5207e-10
-1.25908e-16
-2.41737e-16
1.52069e-10
-9.39728e-16
-9.83112e-16
1.5207e-10
5.30411e-16
6.55302e-16
1.5207e-10
-9.62656e-16
-1.43957e-15
1.52071e-10
1.48689e-15
1.9352e-15
1.52071e-10
-1.013e-15
-1.76234e-15
1.52071e-10
2.05008e-15
3.04115e-15
1.52072e-10
-5.03684e-16
-1.33755e-15
1.33895e-15
2.56888e-15
1.79389e-10
5.47128e-11
1.43071e-10
1.75895e-10
1.03607e-11
2.53728e-11
1.75195e-10
-9.38672e-13
-2.77189e-12
1.75932e-10
-5.47072e-13
-1.15495e-12
1.75971e-10
-6.04526e-14
-1.66807e-13
1.75991e-10
-4.75926e-15
-1.59898e-14
1.75975e-10
9.01878e-15
3.30985e-14
1.75972e-10
-4.26098e-15
-1.03008e-14
1.75973e-10
-3.07649e-15
-6.29875e-15
1.75973e-10
1.94649e-16
1.19913e-16
1.75971e-10
-1.41511e-15
-3.15163e-15
1.75971e-10
-3.16877e-16
-2.76411e-16
1.75971e-10
-2.63988e-16
-1.12396e-15
1.7597e-10
-1.29496e-17
3.93596e-16
1.75971e-10
-5.48078e-17
-3.96152e-16
1.75971e-10
-3.00554e-16
-9.51418e-18
1.75971e-10
-5.65918e-17
-7.75767e-16
1.75971e-10
-7.92256e-17
2.59803e-16
1.75971e-10
1.31594e-16
-1.56637e-17
1.75971e-10
-7.97671e-17
5.20603e-17
1.75971e-10
-1.02285e-16
-3.36757e-16
1.75971e-10
-1.15109e-16
1.2837e-16
1.75971e-10
-7.57637e-17
-4.90466e-16
1.75971e-10
5.52613e-17
3.27659e-16
1.75971e-10
2.32925e-17
-1.60494e-16
1.75971e-10
-4.3557e-17
1.4384e-16
1.75971e-10
-1.25683e-16
-3.41827e-16
1.7597e-10
-2.86389e-16
-2.21877e-16
1.7597e-10
6.05059e-18
-3.2858e-16
1.7597e-10
-7.27144e-16
-1.03353e-15
1.7597e-10
4.55488e-16
5.5326e-16
1.7597e-10
-4.86862e-16
-1.44523e-15
1.75971e-10
9.53189e-16
1.90726e-15
1.75971e-10
-5.04129e-16
-1.64067e-15
1.75972e-10
1.22887e-15
3.10936e-15
1.75973e-10
3.09247e-17
-1.14503e-15
2.06736e-16
2.59324e-15
1.88097e-10
8.30207e-16
1.43187e-10
1.8735e-10
8.91514e-16
2.49516e-11
1.86689e-10
-1.11394e-15
-2.70369e-12
1.87154e-10
-6.57261e-16
-1.2834e-12
1.87182e-10
2.44849e-15
-1.77185e-13
1.87195e-10
5.5667e-15
-2.0005e-14
1.87185e-10
-6.55653e-15
3.57054e-14
1.87181e-10
-8.15904e-16
-1.03522e-14
1.87181e-10
-6.05526e-16
-6.5761e-15
1.8718e-10
5.1876e-16
-1.54754e-17
1.87179e-10
-3.40806e-16
-3.24075e-15
1.87178e-10
-1.24988e-16
-3.37259e-16
1.87178e-10
1.88402e-16
-1.14684e-15
1.87177e-10
-1.77427e-16
3.93332e-16
1.87178e-10
9.02809e-17
-3.94012e-16
1.87178e-10
-3.15888e-16
-4.53619e-17
1.87178e-10
2.83845e-16
-7.93858e-16
1.87178e-10
-1.86313e-16
2.54812e-16
1.87178e-10
1.56986e-16
-7.06477e-18
1.87178e-10
-9.01548e-17
4.35125e-17
1.87178e-10
-5.15625e-18
-3.35234e-16
1.87178e-10
-1.53869e-16
1.09594e-16
1.87177e-10
1.05859e-16
-4.95094e-16
1.87178e-10
-2.84758e-17
3.12255e-16
1.87177e-10
5.23627e-17
-1.49753e-16
1.87178e-10
-8.40752e-17
1.35775e-16
1.87177e-10
-4.53739e-17
-3.54869e-16
1.87177e-10
-2.16881e-16
-2.57054e-16
1.87177e-10
1.91343e-16
-3.83924e-16
1.87177e-10
-4.26917e-16
-1.0692e-15
1.87177e-10
3.93817e-16
4.85209e-16
1.87177e-10
3.036e-17
-1.45727e-15
1.87177e-10
4.20008e-16
1.92747e-15
1.87178e-10
-8.58794e-18
-1.56269e-15
1.87178e-10
2.642e-16
3.12293e-15
1.87179e-10
4.04612e-16
-1.07032e-15
-8.85958e-16
2.64524e-15
1.88097e-10
-5.47112e-11
1.43187e-10
1.8735e-10
-1.0359e-11
2.49515e-11
1.86689e-10
9.3651e-13
-2.70383e-12
1.87153e-10
5.45864e-13
-1.28331e-12
1.87182e-10
6.50502e-14
-1.77008e-13
1.87195e-10
1.55794e-14
-2.03298e-14
1.87185e-10
-2.16005e-14
3.5506e-14
1.87181e-10
2.74633e-15
-1.02025e-14
1.8718e-10
1.91601e-15
-6.44841e-15
1.8718e-10
6.94545e-16
3.3532e-17
1.87179e-10
7.46986e-16
-3.24225e-15
1.87178e-10
5.23005e-17
-3.1183e-16
1.87178e-10
6.04193e-16
-1.14111e-15
1.87177e-10
-3.54682e-16
3.96776e-16
1.87178e-10
2.49733e-16
-3.85163e-16
1.87178e-10
-3.02957e-16
-3.3445e-17
1.87178e-10
5.9554e-16
-7.98265e-16
1.87178e-10
-2.71572e-16
2.53015e-16
1.87178e-10
1.65194e-16
-8.35936e-18
1.87178e-10
-8.21365e-17
4.32578e-17
1.87178e-10
8.36251e-17
-3.33362e-16
1.87178e-10
-1.77768e-16
1.17712e-16
1.87177e-10
2.74069e-16
-4.88988e-16
1.87178e-10
-1.06691e-16
3.10117e-16
1.87177e-10
7.51742e-17
-1.51192e-16
1.87178e-10
-1.10123e-16
1.31114e-16
1.87177e-10
3.64688e-17
-3.51199e-16
1.87177e-10
-1.33752e-16
-2.41019e-16
1.87177e-10
3.49079e-16
-3.83061e-16
1.87177e-10
-7.17642e-17
-1.05402e-15
1.87177e-10
2.69103e-16
5.03915e-16
1.87177e-10
5.81349e-16
-1.4573e-15
1.87177e-10
-1.9287e-16
1.90992e-15
1.87178e-10
5.34153e-16
-1.59106e-15
1.87178e-10
-7.58754e-16
3.13194e-15
1.87179e-10
8.12492e-16
-1.11237e-15
-1.88845e-15
2.64674e-15
1.79389e-10
-1.0035e-10
1.43071e-10
1.75895e-10
-1.79241e-11
2.53726e-11
1.75195e-10
1.95597e-12
-2.77221e-12
1.75932e-10
7.46395e-13
-1.15471e-12
1.75972e-10
1.03193e-13
-1.6634e-13
1.75991e-10
1.79078e-14
-1.6958e-14
1.75975e-10
-2.94075e-14
3.25506e-14
1.75972e-10
5.63927e-15
-9.81777e-15
1.75973e-10
3.40121e-15
-5.94184e-15
1.75973e-10
3.59715e-16
2.53944e-16
1.75971e-10
1.53232e-15
-3.14866e-15
1.75971e-10
1.47284e-17
-2.00883e-16
1.75971e-10
8.92255e-16
-1.10897e-15
1.7597e-10
-5.38129e-16
4.10591e-16
1.75971e-10
4.21463e-16
-3.78883e-16
1.75971e-10
-3.36158e-16
2.33113e-17
1.75971e-10
7.8603e-16
-7.85988e-16
1.75971e-10
-3.36798e-16
2.55273e-16
1.75971e-10
1.68497e-16
-1.91744e-17
1.75971e-10
-7.98807e-17
5.26886e-17
1.75971e-10
1.59302e-16
-3.33421e-16
1.75971e-10
-2.1649e-16
1.51159e-16
1.75971e-10
4.05142e-16
-4.7591e-16
1.75971e-10
-1.89362e-16
3.21192e-16
1.75971e-10
1.14777e-16
-1.65631e-16
1.75971e-10
-1.4158e-16
1.3438e-16
1.7597e-10
1.32156e-16
-3.39042e-16
1.7597e-10
-8.11096e-17
-1.82116e-16
1.7597e-10
4.02068e-16
-3.29997e-16
1.7597e-10
2.77998e-16
-1.00045e-15
1.7597e-10
1.69649e-17
5.94216e-16
1.75971e-10
1.12233e-15
-1.45273e-15
1.75971e-10
-9.11715e-16
1.87736e-15
1.75971e-10
1.16147e-15
-1.7108e-15
1.75972e-10
-1.72715e-15
3.13429e-15
1.75973e-10
1.40094e-15
-1.26617e-15
-2.74167e-15
2.61236e-15
1.59807e-10
-1.23873e-10
1.39817e-10
1.5136e-10
-1.95906e-11
2.45224e-11
1.50944e-10
2.77987e-12
-2.89808e-12
1.52026e-10
4.33735e-13
-8.68151e-13
1.52065e-10
1.18454e-13
-1.43681e-13
1.52092e-10
1.01229e-14
-1.12757e-14
1.5207e-10
-2.78228e-14
2.68979e-14
1.52068e-10
6.96095e-15
-8.77017e-15
1.5207e-10
3.30374e-15
-5.01634e-15
1.52071e-10
-6.45427e-16
5.8144e-16
1.5207e-10
1.80892e-15
-2.89131e-15
1.5207e-10
-3.75902e-16
-1.95931e-18
1.5207e-10
9.3843e-16
-1.04593e-15
1.52069e-10
-7.61656e-16
4.45911e-16
1.52069e-10
5.88458e-16
-4.00755e-16
1.5207e-10
-4.30372e-16
1.15675e-16
1.5207e-10
8.52813e-16
-7.29461e-16
1.5207e-10
-3.87367e-16
2.55894e-16
1.5207e-10
1.83412e-16
-3.60522e-17
1.5207e-10
-7.73825e-17
7.71491e-17
1.5207e-10
1.82186e-16
-3.38067e-16
1.5207e-10
-3.06334e-16
1.99281e-16
1.5207e-10
4.60368e-16
-4.65352e-16
1.5207e-10
-2.7595e-16
3.38248e-16
1.5207e-10
1.78122e-16
-1.95491e-16
1.5207e-10
-1.66551e-16
1.63731e-16
1.5207e-10
1.51386e-16
-3.54972e-16
1.5207e-10
-1.692e-16
-1.06976e-16
1.5207e-10
2.5854e-16
-2.57806e-16
1.52069e-10
4.76063e-16
-9.32676e-16
1.5207e-10
-4.79517e-16
6.8148e-16
1.5207e-10
1.62573e-15
-1.44548e-15
1.52071e-10
-1.52706e-15
1.89733e-15
1.52071e-10
1.99511e-15
-1.83286e-15
1.52071e-10
-2.53761e-15
3.06316e-15
1.52072e-10
2.38788e-15
-1.4967e-15
-3.21914e-15
2.61812e-15
1.2422e-10
-1.02633e-10
1.23874e-10
1.10124e-10
-1.25417e-11
1.95915e-11
1.10953e-10
2.36454e-12
-2.78144e-12
1.11964e-10
-7.1848e-14
-4.34016e-13
1.12012e-10
9.52895e-14
-1.15356e-13
1.12033e-10
4.81608e-15
-3.63246e-15
1.1201e-10
-2.0732e-14
1.8503e-14
1.12011e-10
6.00178e-15
-6.8288e-15
1.12014e-10
2.06301e-15
-3.42682e-15
1.12015e-10
-2.11233e-15
6.46058e-16
1.12014e-10
1.77418e-15
-2.26867e-15
1.12015e-10
-1.06449e-15
1.61624e-16
1.12015e-10
7.79749e-16
-8.63817e-16
1.12014e-10
-9.68883e-16
4.44677e-16
1.12014e-10
7.43682e-16
-3.92687e-16
1.12014e-10
-5.11728e-16
1.52201e-16
1.12015e-10
7.8252e-16
-5.72e-16
1.12015e-10
-4.24826e-16
2.2412e-16
1.12015e-10
2.2341e-16
-4.42628e-17
1.12015e-10
-1.44529e-16
8.38503e-17
1.12015e-10
2.48131e-16
-2.88841e-16
1.12015e-10
-4.81618e-16
1.93038e-16
1.12015e-10
5.37795e-16
-3.88632e-16
1.12015e-10
-4.36265e-16
2.88955e-16
1.12015e-10
3.59989e-16
-1.76496e-16
1.12015e-10
-3.17189e-16
1.49993e-16
1.12015e-10
2.64147e-16
-3.09396e-16
1.12015e-10
-3.92683e-16
-7.41962e-17
1.12015e-10
6.5483e-17
-1.75814e-16
1.12015e-10
5.34942e-16
-7.76356e-16
1.12015e-10
-1.01904e-15
6.22869e-16
1.12016e-10
1.99865e-15
-1.26325e-15
1.12016e-10
-2.06998e-15
1.68843e-15
1.12016e-10
2.8169e-15
-1.62896e-15
1.12016e-10
-3.13128e-15
2.58278e-15
1.12016e-10
3.58652e-15
-1.46827e-15
-3.49504e-15
2.28962e-15
6.08758e-11
6.95383e-11
4.64081e-11
8.28436e-12
4.88983e-11
-1.57886e-12
4.90226e-11
-2.79454e-14
4.91137e-11
-6.739e-14
4.91264e-11
1.57708e-15
4.91005e-11
8.95229e-15
4.91078e-11
-4.52027e-15
4.91104e-11
-1.51437e-15
4.91083e-11
4.81395e-16
4.91103e-11
-1.39102e-15
4.91093e-11
2.03035e-16
4.91101e-11
-4.76373e-16
4.91091e-11
2.60444e-16
4.91098e-11
-1.89654e-16
4.91094e-11
8.16158e-17
4.91103e-11
-3.66707e-16
4.91098e-11
1.79171e-16
4.911e-11
-6.53658e-17
4.91099e-11
4.65632e-17
4.91102e-11
-1.60102e-16
4.91097e-11
1.41795e-16
4.91102e-11
-2.29796e-16
4.91098e-11
1.9332e-16
4.91101e-11
-1.22594e-16
4.91099e-11
8.55965e-17
4.91101e-11
-1.45061e-16
4.91097e-11
4.59715e-18
4.91098e-11
-8.24404e-17
4.91104e-11
-3.82271e-16
4.91093e-11
4.29758e-16
4.91114e-11
-7.31063e-16
4.91093e-11
8.94819e-16
4.91123e-11
-1.03982e-15
4.9109e-11
1.54242e-15
4.91126e-11
-9.9986e-16
1.30694e-15
7.43077e-11
1.09398e-10
5.25333e-11
6.15143e-11
1.44071e-11
6.67187e-12
6.352e-11
-2.48788e-12
-1.09734e-12
6.37777e-11
-9.80748e-14
-1.88384e-13
6.3848e-11
-9.30838e-14
-4.35167e-14
6.38683e-11
-7.49198e-15
-2.66888e-15
6.38408e-11
2.15272e-14
8.75095e-15
6.38474e-11
-7.77953e-15
-4.74518e-15
6.38501e-11
-3.19896e-15
-1.85811e-15
6.38477e-11
2.05694e-15
1.80267e-16
6.38496e-11
-2.52097e-15
-1.29143e-15
6.38485e-11
8.79306e-16
-4.91945e-17
6.38492e-11
-9.32805e-16
-3.63582e-16
6.38482e-11
7.2047e-16
1.56056e-16
6.38489e-11
-5.88314e-16
-1.3605e-16
6.38485e-11
4.09095e-16
-8.99497e-17
6.38493e-11
-7.81875e-16
-2.58424e-16
6.38489e-11
4.11234e-16
1.17897e-16
6.38491e-11
-1.83897e-16
-1.77774e-17
6.3849e-11
1.93863e-16
-3.97612e-18
6.38492e-11
-3.81584e-16
-1.1005e-16
6.38488e-11
4.82903e-16
1.79478e-17
6.38493e-11
-6.06856e-16
-1.49252e-16
6.38489e-11
5.44709e-16
1.07822e-16
6.38492e-11
-4.2469e-16
-4.08574e-17
6.38489e-11
3.85369e-16
7.17392e-18
6.38491e-11
-4.07464e-16
-9.10675e-17
6.38487e-11
3.16228e-16
-1.41927e-16
6.38488e-11
-9.97984e-17
-8.14009e-17
6.38493e-11
-7.11399e-16
-4.29781e-16
6.38482e-11
1.13346e-15
2.56822e-16
6.38503e-11
-1.88395e-15
-5.0086e-16
6.38483e-11
2.23691e-15
7.05518e-16
6.38513e-11
-2.82148e-15
-5.69906e-16
6.3848e-11
3.48725e-15
1.16451e-15
6.38518e-11
-3.16298e-15
-3.64576e-16
3.48794e-15
6.5892e-16
1.59807e-10
1.39817e-10
1.00351e-10
1.5136e-10
2.45228e-11
1.79257e-11
1.50944e-10
-2.89786e-12
-1.95776e-12
1.52026e-10
-8.68528e-13
-7.47256e-13
1.52064e-10
-1.44253e-13
-9.94977e-14
1.52092e-10
-9.22972e-15
-8.82893e-15
1.5207e-10
2.72694e-14
1.88889e-14
1.52069e-10
-9.53883e-15
-6.84424e-15
1.5207e-10
-5.70299e-15
-4.17429e-15
1.52071e-10
5.33986e-16
-1.14804e-17
1.5207e-10
-2.96818e-15
-2.06933e-15
1.5207e-10
-1.13626e-16
-3.12006e-16
1.5207e-10
-1.03816e-15
-6.78667e-16
1.52069e-10
3.44714e-16
2.24039e-16
1.52069e-10
-3.58001e-16
-2.69408e-16
1.52069e-10
2.67908e-17
-1.27986e-16
1.5207e-10
-6.77908e-16
-3.72947e-16
1.5207e-10
2.35394e-16
7.64227e-17
1.5207e-10
-1.27725e-17
5.95242e-17
1.5207e-10
4.94177e-17
-3.52147e-18
1.5207e-10
-3.23418e-16
-2.17647e-16
1.5207e-10
1.37302e-16
-2.49374e-18
1.5207e-10
-4.6064e-16
-2.65576e-16
1.5207e-10
3.29067e-16
1.65678e-16
1.5207e-10
-1.65768e-16
-5.08873e-17
1.5207e-10
1.50821e-16
4.61866e-17
1.5207e-10
-3.28447e-16
-2.40402e-16
1.5207e-10
-1.80958e-16
-2.86351e-16
1.5207e-10
-2.21879e-16
-1.48796e-16
1.52069e-10
-1.0661e-15
-8.48695e-16
1.5207e-10
7.4754e-16
4.15702e-16
1.5207e-10
-1.48402e-15
-9.01575e-16
1.52071e-10
2.01924e-15
1.39007e-15
1.52071e-10
-1.80159e-15
-9.61811e-16
1.52071e-10
3.07376e-15
2.01269e-15
1.52072e-10
-1.36029e-15
-4.65095e-16
2.57498e-15
1.35423e-15
2.10668e-10
1.17834e-10
1.17834e-10
2.11848e-10
2.39338e-11
2.39337e-11
2.0991e-10
-1.93012e-12
-1.93001e-12
2.1071e-10
-1.26891e-12
-1.26879e-12
2.10741e-10
-1.58044e-13
-1.58084e-13
2.10769e-10
-1.34806e-14
-1.43672e-14
2.10752e-10
2.72533e-14
2.77673e-14
2.10748e-10
-8.36822e-15
-8.38733e-15
2.10748e-10
-6.31685e-15
-6.01226e-15
2.10748e-10
-1.15837e-16
-3.06386e-16
2.10746e-10
-2.75166e-15
-2.66762e-15
2.10746e-10
-5.587e-16
-5.63318e-16
2.10745e-10
-8.24175e-16
-8.60489e-16
2.10744e-10
1.29662e-16
2.08525e-16
2.10745e-10
-1.99997e-16
-2.63151e-16
2.10745e-10
-2.60173e-16
-2.03105e-16
2.10745e-10
-4.78325e-16