/*--------------------------------*- C++ -*----------------------------------*\
  =========                 |
  \\      /  F ield         | OpenFOAM: The Open Source CFD Toolbox
   \\    /   O peration     | Website:  https://openfoam.org
    \\  /    A nd           | Version:  13
     \\/     M anipulation  |
\*---------------------------------------------------------------------------*/
FoamFile
{
    format      ascii;
    class       volVectorField;
    location    "29";
    object      U;
}
// * * * * * * * * * * * * * * * * * * * * * * * * * * * * * * * * * * * * * //

dimensions      [0 1 -1 0 0 0 0];

internalField   nonuniform List<vector> 
3700
(
(0.275264 0.00693439 0.00693439)
(0.284356 0.000596544 0.000596544)
(0.212769 -0.000203899 -0.000203898)
(0.246106 4.98257e-05 4.98259e-05)
(0.237917 -1.41874e-05 -1.41899e-05)
(0.24041 2.85004e-06 2.84773e-06)
(0.239786 -3.37023e-09 1.45177e-09)
(0.239812 -2.33228e-07 -2.33806e-07)
(0.239873 -4.73405e-08 -4.69973e-08)
(0.239859 8.45156e-08 8.34612e-08)
(0.239859 -1.0189e-07 -1.00946e-07)
(0.239866 5.47944e-08 5.46315e-08)
(0.239863 -5.02408e-08 -5.04935e-08)
(0.239864 3.87933e-08 3.99331e-08)
(0.239862 -3.37595e-08 -3.49985e-08)
(0.239863 2.64515e-08 2.70631e-08)
(0.239865 -3.06345e-08 -3.09135e-08)
(0.239867 2.10322e-08 2.12352e-08)
(0.239865 -1.12909e-08 -1.14379e-08)
(0.239865 1.14365e-08 1.16826e-08)
(0.239867 -1.81464e-08 -1.833e-08)
(0.239865 2.08487e-08 2.11419e-08)
(0.239866 -2.67047e-08 -2.69009e-08)
(0.239866 2.33725e-08 2.3581e-08)
(0.239865 -1.87604e-08 -1.89938e-08)
(0.239866 1.75331e-08 1.77316e-08)
(0.239865 -1.99416e-08 -2.01197e-08)
(0.239866 5.99013e-09 6.32898e-09)
(0.239862 9.48239e-10 1.06415e-09)
(0.23987 -4.13028e-08 -4.07558e-08)
(0.239862 5.83316e-08 5.73835e-08)
(0.239872 -9.57473e-08 -9.5086e-08)
(0.239865 1.27935e-07 1.27442e-07)
(0.239874 -1.38056e-07 -1.37817e-07)
(0.239867 1.69655e-07 1.69208e-07)
(0.239871 -1.60967e-07 -1.60893e-07)
(0.239871 1.82835e-07 1.81905e-07)
(0.508699 0.0136116 0.0107825)
(0.565701 0.00151415 0.00118123)
(0.447519 -0.000296437 -0.000356614)
(0.500458 7.73854e-06 7.25746e-05)
(0.488164 -1.18133e-05 -2.06583e-05)
(0.491936 3.23976e-07 2.96936e-06)
(0.490992 1.74911e-06 5.29934e-07)
(0.491025 -8.271e-07 -1.59644e-07)
(0.491112 -3.10686e-07 -1.9455e-07)
(0.491091 1.56929e-07 2.71779e-07)
(0.491092 -2.48954e-07 -1.96458e-07)
(0.491101 6.27605e-08 1.3194e-07)
(0.491097 -9.13559e-08 -1.10842e-07)
(0.491096 6.44189e-08 9.08949e-08)
(0.491094 -5.27757e-08 -9.51244e-08)
(0.491096 2.90286e-08 6.72247e-08)
(0.491098 -7.1419e-08 -3.95387e-08)
(0.491101 3.69122e-08 2.60763e-08)
(0.491099 -1.47407e-08 -8.36444e-09)
(0.4911 1.15325e-08 3.28597e-08)
(0.491102 -3.07967e-08 -5.70144e-08)
(0.491098 3.34714e-08 5.24934e-08)
(0.4911 -4.94521e-08 -7.50867e-08)
(0.491101 4.18631e-08 5.58844e-08)
(0.491099 -2.88979e-08 -5.32194e-08)
(0.491101 2.40662e-08 7.03678e-08)
(0.491099 -3.01934e-08 -1.03598e-07)
(0.491101 1.13773e-08 2.71596e-09)
(0.491093 -9.21423e-09 -8.83735e-09)
(0.491106 -7.7721e-08 -1.55715e-07)
(0.491092 1.00239e-07 1.28894e-07)
(0.491109 -1.69954e-07 -2.70178e-07)
(0.491098 2.06161e-07 4.32373e-07)
(0.491113 -2.41023e-07 -3.30824e-07)
(0.491102 3.17728e-07 4.1168e-07)
(0.49111 -2.54338e-07 -4.0914e-07)
(0.491109 2.95491e-07 5.70883e-07)
(0.620351 0.012127 0.0107344)
(0.722938 0.00153482 0.00125236)
(0.59219 -0.000263094 -0.000379466)
(0.648278 -2.6352e-05 6.93279e-05)
(0.63543 -1.06697e-05 -2.04969e-05)
(0.639366 -8.03976e-08 2.53329e-06)
(0.638403 1.83515e-06 8.58125e-07)
(0.638419 -9.99469e-07 -2.6436e-07)
(0.638509 -4.07608e-07 -2.8148e-07)
(0.638485 7.89063e-08 3.02166e-07)
(0.638485 -2.8606e-07 -2.40035e-07)
(0.638493 9.47612e-09 1.36679e-07)
(0.638488 -8.56301e-08 -1.29599e-07)
(0.638487 3.48136e-08 8.84047e-08)
(0.638485 -2.86583e-08 -9.35911e-08)
(0.638487 -4.73744e-09 8.45033e-08)
(0.638489 -6.32852e-08 -5.30185e-08)
(0.638492 2.96292e-08 2.86483e-08)
(0.63849 -7.8488e-09 -9.22947e-09)
(0.63849 1.63043e-09 3.6062e-08)
(0.638493 -2.49857e-08 -6.44779e-08)
(0.638489 1.20246e-08 6.33811e-08)
(0.63849 -3.66702e-08 -8.41556e-08)
(0.638491 2.96285e-08 6.94647e-08)
(0.63849 -1.42598e-08 -6.32496e-08)
(0.638492 6.71886e-09 8.08006e-08)
(0.638489 -1.78949e-08 -1.11146e-07)
(0.638492 -1.54489e-08 2.31561e-08)
(0.638482 -1.41127e-08 -6.45215e-09)
(0.638497 -8.53402e-08 -1.4349e-07)
(0.63848 7.73808e-08 1.51258e-07)
(0.638499 -1.24414e-07 -2.73269e-07)
(0.638486 1.59033e-07 4.33545e-07)
(0.638504 -1.64016e-07 -3.79443e-07)
(0.638491 2.72873e-07 4.4841e-07)
(0.638501 -1.27911e-07 -4.34345e-07)
(0.638501 1.82356e-07 6.06547e-07)
(0.675031 0.00771512 0.010425)
(0.810295 0.00102157 0.00118439)
(0.67888 -0.000154168 -0.000376487)
(0.733417 -3.87719e-05 6.34621e-05)
(0.72066 -6.51288e-06 -1.93808e-05)
(0.724511 -4.81702e-07 2.09225e-06)
(0.723594 1.22773e-06 1.09831e-06)
(0.723599 -6.98722e-07 -3.77066e-07)
(0.723684 -3.33253e-07 -3.04337e-07)
(0.72366 4.8313e-08 3.05431e-07)
(0.723657 -2.19258e-07 -2.59743e-07)
(0.723665 -1.20763e-08 1.35393e-07)
(0.723659 -4.89426e-08 -1.32708e-07)
(0.723658 1.41614e-08 8.49375e-08)
(0.723655 -1.26502e-08 -8.78438e-08)
(0.723658 -2.89835e-08 8.71667e-08)
(0.723659 -3.0795e-08 -6.37217e-08)
(0.723662 1.18265e-08 3.45749e-08)
(0.72366 2.84357e-09 -1.20485e-08)
(0.72366 -6.20184e-09 3.57937e-08)
(0.723663 -1.40453e-08 -6.40574e-08)
(0.723659 -6.55302e-09 6.61975e-08)
(0.72366 -1.6682e-08 -8.60956e-08)
(0.72366 9.90829e-09 7.38414e-08)
(0.723659 2.60497e-10 -6.57644e-08)
(0.723662 -5.77993e-09 7.97548e-08)
(0.723658 -1.19735e-08 -1.06849e-07)
(0.723662 -3.54402e-08 3.21954e-08)
(0.72365 -9.27973e-09 -1.19208e-08)
(0.723666 -9.06292e-08 -1.25755e-07)
(0.723647 5.32978e-08 1.43276e-07)
(0.723667 -8.4074e-08 -2.57752e-07)
(0.723653 1.29046e-07 4.01914e-07)
(0.723673 -8.20106e-08 -3.71466e-07)
(0.723659 1.84621e-07 4.43294e-07)
(0.723671 -4.00362e-08 -4.20404e-07)
(0.723671 7.64992e-08 5.84622e-07)
(0.69771 0.00262532 0.010282)
(0.849688 0.000349457 0.00112457)
(0.719894 -4.90493e-05 -0.00037471)
(0.772861 -1.75676e-05 6.07742e-05)
(0.760161 -1.98743e-06 -1.86833e-05)
(0.763936 -3.35749e-08 1.85049e-06)
(0.763053 9.40457e-09 1.18341e-06)
(0.763054 -1.93766e-07 -4.02461e-07)
(0.763135 -1.61158e-07 -3.05595e-07)
(0.76311 6.4536e-08 3.11427e-07)
(0.763106 -1.10757e-07 -2.66503e-07)
(0.763113 -3.79082e-09 1.37629e-07)
(0.763107 -6.88647e-09 -1.34657e-07)
(0.763106 -5.41654e-09 8.70724e-08)
(0.763103 3.49654e-09 -9.01043e-08)
(0.763106 -2.75418e-08 8.74911e-08)
(0.763106 4.22266e-09 -6.65576e-08)
(0.76311 -6.64623e-09 3.82021e-08)
(0.763108 1.03098e-08 -1.34093e-08)
(0.763108 -8.34258e-09 3.64029e-08)
(0.76311 -4.69384e-09 -6.47997e-08)
(0.763106 -1.17461e-08 6.62694e-08)
(0.763107 3.09389e-09 -8.86231e-08)
(0.763108 -1.73856e-09 7.47286e-08)
(0.763106 6.09031e-09 -6.71523e-08)
(0.763109 -9.83283e-09 8.04329e-08)
(0.763105 -6.12788e-09 -1.10918e-07)
(0.763109 -2.85767e-08 2.98087e-08)
(0.763097 1.22236e-08 -2.01104e-08)
(0.763113 -7.00472e-08 -1.28103e-07)
(0.763093 5.45687e-08 1.30498e-07)
(0.763114 -3.98913e-08 -2.57356e-07)
(0.763099 8.63494e-08 4.07193e-07)
(0.763119 -4.33376e-08 -3.58657e-07)
(0.763105 9.28171e-08 4.42289e-07)
(0.763118 -5.13537e-10 -4.14535e-07)
(0.763119 -2.04326e-08 5.89398e-07)
(0.69771 -0.00262516 0.010282)
(0.849688 -0.00034932 0.00112459)
(0.719894 4.8775e-05 -0.000374724)
(0.772861 1.75006e-05 6.07693e-05)
(0.760161 2.52533e-06 -1.86719e-05)
(0.763938 8.80468e-07 1.84455e-06)
(0.763053 -1.42382e-06 1.16444e-06)
(0.763054 3.36009e-07 -3.84858e-07)
(0.763135 4.84628e-08 -3.10357e-07)
(0.76311 8.0177e-08 3.16628e-07)
(0.763106 1.02885e-08 -2.70424e-07)
(0.763113 1.06976e-08 1.40601e-07)
(0.763107 3.3648e-08 -1.37762e-07)
(0.763106 -2.75173e-08 8.79732e-08)
(0.763103 2.17671e-08 -9.1175e-08)
(0.763106 -1.48013e-08 9.26183e-08)
(0.763107 3.64735e-08 -6.98288e-08)
(0.76311 -2.24483e-08 4.00529e-08)
(0.763108 1.41915e-08 -1.51251e-08)
(0.763108 -7.1202e-09 3.79289e-08)
(0.76311 3.26781e-09 -6.6317e-08)
(0.763106 -1.10353e-08 6.84054e-08)
(0.763107 2.13911e-08 -9.01547e-08)
(0.763108 -8.30202e-09 7.69156e-08)
(0.763106 7.38062e-09 -6.93652e-08)
(0.763109 -1.01198e-08 8.24157e-08)
(0.763105 1.59669e-09 -1.12813e-07)
(0.763109 -9.25148e-09 3.40697e-08)
(0.763097 3.73222e-08 -2.14119e-08)
(0.763113 -2.9131e-08 -1.23422e-07)
(0.763093 5.70851e-08 1.29523e-07)
(0.763114 1.71361e-08 -2.53217e-07)
(0.7631 1.93283e-08 4.03041e-07)
(0.763119 -1.09359e-08 -3.6138e-07)
(0.763106 -9.49052e-09 4.41527e-07)
(0.763118 3.48902e-08 -4.14522e-07)
(0.763119 -1.2335e-07 5.88396e-07)
(0.675031 -0.00771499 0.010425)
(0.810295 -0.00102145 0.00118444)
(0.678881 0.000153948 -0.000376511)
(0.733416 3.87129e-05 6.34479e-05)
(0.72066 6.97004e-06 -1.93527e-05)
(0.724515 1.30695e-06 2.07297e-06)
(0.723594 -2.52704e-06 1.03905e-06)
(0.723598 8.28074e-07 -3.21418e-07)
(0.723683 2.31599e-07 -3.15569e-07)
(0.723659 6.31679e-08 3.21025e-07)
(0.723657 1.27241e-07 -2.70119e-07)
(0.723665 1.35698e-08 1.44637e-07)
(0.723658 6.85531e-08 -1.41798e-07)
(0.723658 -4.67298e-08 8.88094e-08)
(0.723655 3.43915e-08 -9.2829e-08)
(0.723658 -8.42979e-09 1.01697e-07)
(0.723659 6.74661e-08 -7.26321e-08)
(0.723662 -3.56783e-08 4.03248e-08)
(0.72366 1.77302e-08 -1.70685e-08)
(0.72366 -4.60227e-09 4.06441e-08)
(0.723663 9.23002e-09 -6.89849e-08)
(0.723659 -1.33833e-08 7.22597e-08)
(0.72366 3.43895e-08 -9.16543e-08)
(0.723661 -1.61047e-08 8.03488e-08)
(0.723659 8.5598e-09 -7.28672e-08)
(0.723662 -7.26107e-09 8.65833e-08)
(0.723658 1.3152e-09 -1.1464e-07)
(0.723662 -6.95397e-10 4.26552e-08)
(0.72365 4.59794e-08 -1.80143e-08)
(0.723666 5.28589e-09 -1.1434e-07)
(0.723647 2.9806e-08 1.35491e-07)
(0.723667 7.35635e-08 -2.47183e-07)
(0.723654 -3.86445e-08 3.94504e-07)
(0.723673 5.40766e-08 -3.73995e-07)
(0.723659 -1.21029e-07 4.40377e-07)
(0.723671 9.09914e-08 -4.19414e-07)
(0.723671 -2.01448e-07 5.85912e-07)
(0.620351 -0.0121269 0.0107344)
(0.722938 -0.00153473 0.00125241)
(0.592191 0.000262921 -0.00037948)
(0.648277 2.63127e-05 6.93097e-05)
(0.63543 1.10022e-05 -2.0469e-05)
(0.63937 8.63899e-07 2.51611e-06)
(0.638403 -2.87549e-06 7.52032e-07)
(0.638417 1.05332e-06 -1.71537e-07)
(0.638508 3.26156e-07 -2.97382e-07)
(0.638485 -3.70579e-08 3.28284e-07)
(0.638484 2.09359e-07 -2.55998e-07)
(0.638493 -2.28843e-08 1.52999e-07)
(0.638488 9.55924e-08 -1.45139e-07)
(0.638487 -6.99675e-08 1.00305e-07)
(0.638484 5.10031e-08 -1.09145e-07)
(0.638487 -2.57993e-08 1.08547e-07)
(0.638489 9.13924e-08 -6.80499e-08)
(0.638492 -4.66999e-08 4.02903e-08)
(0.63849 2.20838e-08 -1.83059e-08)
(0.63849 -7.33146e-09 4.55717e-08)
(0.638493 1.80562e-08 -7.42811e-08)
(0.638489 -2.7489e-08 7.40313e-08)
(0.63849 4.78409e-08 -9.72162e-08)
(0.638491 -3.09745e-08 8.24767e-08)
(0.63849 1.84585e-08 -7.80979e-08)
(0.638492 -1.34468e-08 9.55627e-08)
(0.638489 7.42497e-09 -1.29928e-07)
(0.638492 -1.26311e-08 3.9372e-08)
(0.638482 3.61845e-08 -2.48464e-08)
(0.638497 3.3299e-08 -1.21741e-07)
(0.63848 -3.02219e-08 1.21819e-07)
(0.638499 1.3988e-07 -2.51392e-07)
(0.638487 -1.16336e-07 4.21797e-07)
(0.638504 1.68526e-07 -3.6641e-07)
(0.638491 -2.44716e-07 4.36881e-07)
(0.638502 2.04772e-07 -4.24751e-07)
(0.638501 -2.9147e-07 6.11411e-07)
(0.508699 -0.0136115 0.0107825)
(0.565701 -0.00151408 0.00118124)
(0.44752 0.000296315 -0.000356654)
(0.500457 -7.74889e-06 7.25554e-05)
(0.488164 1.20092e-05 -2.06125e-05)
(0.491939 2.46587e-07 3.07262e-06)
(0.490992 -2.39505e-06 4.10402e-07)
(0.491024 8.11608e-07 -1.45983e-07)
(0.491111 2.76632e-07 -2.22174e-07)
(0.49109 -1.82392e-07 2.73566e-07)
(0.491092 2.03076e-07 -2.20672e-07)
(0.491101 -8.67064e-08 1.3772e-07)
(0.491097 9.44143e-08 -1.26122e-07)
(0.491096 -9.65721e-08 9.51176e-08)
(0.491094 7.4057e-08 -1.02059e-07)
(0.491096 -5.20228e-08 9.01843e-08)
(0.491098 9.06517e-08 -5.82611e-08)
(0.491101 -4.80111e-08 3.73247e-08)
(0.491099 2.29763e-08 -1.83602e-08)
(0.4911 -1.31828e-08 4.03747e-08)
(0.491102 2.43399e-08 -6.46044e-08)
(0.491098 -4.41456e-08 6.31699e-08)
(0.4911 5.55144e-08 -8.44207e-08)
(0.491101 -4.20289e-08 7.05555e-08)
(0.491099 3.12598e-08 -6.75345e-08)
(0.491101 -2.70229e-08 8.14818e-08)
(0.491099 2.2419e-08 -1.11875e-07)
(0.491101 -3.28285e-08 2.71771e-08)
(0.491093 1.632e-08 -2.16224e-08)
(0.491106 5.33071e-08 -1.12377e-07)
(0.491092 -8.71833e-08 1.05405e-07)
(0.491109 1.96412e-07 -2.2679e-07)
(0.491099 -2.00481e-07 3.78034e-07)
(0.491113 2.69524e-07 -3.17666e-07)
(0.491102 -3.18156e-07 3.87209e-07)
(0.49111 3.33092e-07 -3.80315e-07)
(0.491108 -3.62224e-07 5.35801e-07)
(0.275264 -0.00693436 0.00693441)
(0.284357 -0.000596514 0.000596552)
(0.212769 0.000203858 -0.000203932)
(0.246105 -4.98242e-05 4.9839e-05)
(0.237917 1.4245e-05 -1.41602e-05)
(0.240412 -2.64176e-06 2.92436e-06)
(0.239785 -1.97281e-07 -8.22674e-08)
(0.239812 2.09351e-07 -2.42717e-07)
(0.239872 4.34143e-08 -4.23246e-08)
(0.239858 -1.10672e-07 6.62901e-08)
(0.239859 8.86111e-08 -1.07556e-07)
(0.239866 -6.8186e-08 4.94585e-08)
(0.239863 5.0701e-08 -5.18874e-08)
(0.239864 -5.17371e-08 3.48163e-08)
(0.239862 4.20542e-08 -3.14136e-08)
(0.239863 -3.7032e-08 2.55595e-08)
(0.239865 3.84538e-08 -3.0652e-08)
(0.239867 -2.48677e-08 2.11464e-08)
(0.239865 1.39421e-08 -1.20484e-08)
(0.239865 -1.13561e-08 1.23057e-08)
(0.239867 1.51358e-08 -2.02068e-08)
(0.239865 -2.52305e-08 2.0865e-08)
(0.239866 2.76514e-08 -2.74754e-08)
(0.239866 -2.34894e-08 2.48576e-08)
(0.239865 1.93813e-08 -2.02294e-08)
(0.239866 -1.75218e-08 1.85207e-08)
(0.239865 1.52487e-08 -2.28213e-08)
(0.239866 -1.67992e-08 4.69976e-09)
(0.239862 -2.59875e-09 -2.34807e-09)
(0.23987 3.22747e-08 -3.80126e-08)
(0.239862 -6.22557e-08 5.0998e-08)
(0.239872 1.06968e-07 -8.50541e-08)
(0.239865 -1.27131e-07 1.18413e-07)
(0.239874 1.58907e-07 -1.26107e-07)
(0.239867 -1.74694e-07 1.62699e-07)
(0.239871 1.96879e-07 -1.43531e-07)
(0.23987 -1.9863e-07 1.7457e-07)
(0.508699 0.0107825 0.0136116)
(0.565701 0.00118123 0.00151415)
(0.447519 -0.000356616 -0.000296432)
(0.500458 7.25738e-05 7.74086e-06)
(0.488164 -2.0655e-05 -1.18211e-05)
(0.491936 2.97838e-06 3.00455e-07)
(0.490992 5.20393e-07 1.77548e-06)
(0.491025 -1.59206e-07 -8.3317e-07)
(0.491112 -1.96489e-07 -3.02079e-07)
(0.491091 2.73792e-07 1.4849e-07)
(0.491092 -1.98168e-07 -2.43301e-07)
(0.491101 1.32023e-07 6.13459e-08)
(0.491097 -1.10302e-07 -9.19524e-08)
(0.491096 8.84482e-08 6.86462e-08)
(0.491094 -9.26314e-08 -5.70643e-08)
(0.491096 6.60569e-08 3.09055e-08)
(0.491098 -3.89081e-08 -7.2613e-08)
(0.491101 2.56518e-08 3.7885e-08)
(0.491099 -8.06435e-09 -1.54411e-08)
(0.4911 3.23771e-08 1.25792e-08)
(0.491102 -5.66864e-08 -3.15219e-08)
(0.491098 5.19001e-08 3.46961e-08)
(0.4911 -7.47148e-08 -5.04561e-08)
(0.491101 5.55292e-08 4.27407e-08)
(0.491099 -5.28032e-08 -2.98966e-08)
(0.491101 6.99931e-08 2.5063e-08)
(0.491099 -1.03226e-07 -3.12892e-08)
(0.491101 2.11337e-09 1.25328e-08)
(0.491093 -8.81409e-09 -9.75831e-09)
(0.491106 -1.57043e-07 -7.42065e-08)
(0.491092 1.3078e-07 9.45363e-08)
(0.491109 -2.71252e-07 -1.66465e-07)
(0.491098 4.33506e-07 2.02343e-07)
(0.491113 -3.31286e-07 -2.37935e-07)
(0.491102 4.12395e-07 3.14781e-07)
(0.49111 -4.09162e-07 -2.52259e-07)
(0.491109 5.72204e-07 2.93482e-07)
(1.05029 0.0231108 0.0231108)
(1.25971 0.00336364 0.00336363)
(1.0476 -0.000524315 -0.000524306)
(1.1341 -4.31708e-05 -4.31648e-05)
(1.11569 -1.81048e-05 -1.81115e-05)
(1.12147 -7.43857e-07 -8.04049e-07)
(1.11999 3.87865e-06 3.92849e-06)
(1.12007 -1.69182e-06 -1.70026e-06)
(1.12016 -6.0596e-07 -5.8711e-07)
(1.12014 2.22261e-07 2.07948e-07)
(1.12014 -4.56075e-07 -4.47739e-07)
(1.12015 8.75927e-08 8.63692e-08)
(1.12015 -1.58399e-07 -1.5957e-07)
(1.12014 1.00732e-07 1.09587e-07)
(1.12014 -7.50875e-08 -8.36705e-08)
(1.12014 4.43477e-08 4.82772e-08)
(1.12015 -1.43013e-07 -1.46475e-07)
(1.12015 7.10118e-08 7.32239e-08)
(1.12015 -3.01897e-08 -3.16831e-08)
(1.12015 1.9589e-08 2.15242e-08)
(1.12015 -4.88365e-08 -4.99876e-08)
(1.12015 5.95118e-08 6.18743e-08)
(1.12015 -8.18951e-08 -8.34444e-08)
(1.12015 7.63111e-08 7.74073e-08)
(1.12015 -4.75636e-08 -4.88665e-08)
(1.12015 2.87443e-08 3.00721e-08)
(1.12015 -2.07901e-08 -2.21538e-08)
(1.12015 3.69586e-08 3.85624e-08)
(1.12014 -1.27422e-08 -1.43455e-08)
(1.12016 -9.07079e-08 -8.36973e-08)
(1.12014 1.72348e-07 1.63192e-07)
(1.12016 -2.55179e-07 -2.50571e-07)
(1.12015 2.55633e-07 2.48084e-07)
(1.12017 -4.04602e-07 -4.00601e-07)
(1.12015 5.35441e-07 5.32298e-07)
(1.12017 -4.02518e-07 -4.00467e-07)
(1.12016 4.15831e-07 4.13605e-07)
(1.33871 0.0224186 0.0255953)
(1.68416 0.00387693 0.00407235)
(1.44703 -0.000463871 -0.000560523)
(1.53474 -0.000131585 -0.000103713)
(1.51621 -2.07733e-05 -1.93326e-05)
(1.52203 -1.38164e-06 -2.45468e-06)
(1.5206 3.98657e-06 5.36351e-06)
(1.52064 -1.48369e-06 -2.07657e-06)
(1.52073 -8.76537e-07 -8.45086e-07)
(1.5207 7.54824e-08 2.27276e-07)
(1.5207 -4.58876e-07 -5.63015e-07)
(1.5207 -2.87074e-08 7.6397e-08)
(1.5207 -1.52862e-07 -1.93347e-07)
(1.52069 5.18717e-08 1.20382e-07)
(1.52069 -5.56522e-08 -9.49581e-08)
(1.5207 -1.16375e-08 4.1564e-08)
(1.5207 -9.0363e-08 -1.73715e-07)
(1.5207 2.69803e-08 8.27529e-08)
(1.5207 4.75083e-09 -3.26242e-08)
(1.5207 1.89004e-09 2.42402e-08)
(1.5207 -4.70726e-08 -6.40542e-08)
(1.5207 1.12866e-08 6.88751e-08)
(1.5207 -6.44361e-08 -1.04566e-07)
(1.5207 4.37963e-08 9.16736e-08)
(1.5207 -1.8424e-08 -5.86342e-08)
(1.5207 1.6471e-08 4.05581e-08)
(1.52069 -4.92062e-08 -4.1128e-08)
(1.5207 -4.24734e-08 3.20054e-08)
(1.52068 -2.97611e-08 -3.14857e-08)
(1.52071 -1.80504e-07 -1.24381e-07)
(1.52068 1.19725e-07 1.77623e-07)
(1.52071 -2.28122e-07 -3.06595e-07)
(1.52069 3.23256e-07 3.22614e-07)
(1.52072 -2.6415e-07 -4.54735e-07)
(1.5207 4.67935e-07 6.41932e-07)
(1.52072 -1.86987e-07 -4.46047e-07)
(1.52072 3.64361e-07 5.19034e-07)
(1.4863 0.0150928 0.0259994)
(1.92813 0.00286575 0.00414094)
(1.69337 -0.000268688 -0.000551458)
(1.77357 -0.000140119 -0.000144196)
(1.75546 -1.7377e-05 -2.01956e-05)
(1.76094 -1.2388e-06 -3.50848e-06)
(1.75967 2.8562e-06 6.1524e-06)
(1.75969 -1.12468e-06 -2.25316e-06)
(1.75976 -7.5434e-07 -9.56822e-07)
(1.75972 3.23974e-09 1.85795e-07)
(1.75972 -3.55336e-07 -6.0353e-07)
(1.75972 -7.38273e-08 5.16849e-08)
(1.75971 -8.84907e-08 -2.00548e-07)
(1.75971 1.21975e-08 1.17513e-07)
(1.7597 -2.16816e-08 -9.18265e-08)
(1.75971 -5.58736e-08 2.32681e-08)
(1.75971 -4.25369e-08 -1.80863e-07)
(1.75971 -1.23064e-10 8.33976e-08)
(1.75971 1.93201e-08 -3.03628e-08)
(1.75971 -1.33606e-08 2.03637e-08)
(1.75971 -2.61544e-08 -6.33711e-08)
(1.75971 -1.8965e-08 6.10929e-08)
(1.75971 -2.94162e-08 -1.05527e-07)
(1.75971 1.62935e-08 8.71555e-08)
(1.75971 2.91851e-09 -5.31725e-08)
(1.75971 -7.52048e-09 3.53289e-08)
(1.7597 -2.66357e-08 -3.96941e-08)
(1.75971 -6.31947e-08 1.66521e-08)
(1.75969 -1.86944e-08 -4.36444e-08)
(1.75972 -1.58692e-07 -1.40382e-07)
(1.75968 7.97323e-08 1.64539e-07)
(1.75972 -1.31032e-07 -3.13602e-07)
(1.75969 2.14672e-07 3.2798e-07)
(1.75972 -1.20798e-07 -4.3543e-07)
(1.7597 3.05435e-07 6.55551e-07)
(1.75973 -1.75989e-08 -4.18975e-07)
(1.75973 1.24247e-07 5.24622e-07)
(1.54847 0.00526173 0.0259612)
(2.03941 0.00103796 0.00404234)
(1.81113 -8.35687e-05 -0.000545416)
(1.88576 -5.87869e-05 -0.000162575)
(1.86768 -6.57779e-06 -2.02962e-05)
(1.87293 3.55364e-08 -4.18725e-06)
(1.87176 3.25137e-07 6.51436e-06)
(1.87178 -4.80904e-07 -2.27549e-06)
(1.87183 -3.63349e-07 -9.95131e-07)
(1.8718 6.07467e-08 1.68104e-07)
(1.87179 -1.69167e-07 -6.15502e-07)
(1.87179 -4.59514e-08 4.18398e-08)
(1.87178 -6.70359e-09 -2.02052e-07)
(1.87177 -1.7247e-08 1.17546e-07)
(1.87177 3.64529e-09 -9.13578e-08)
(1.87178 -6.32304e-08 1.38961e-08)
(1.87177 2.10375e-08 -1.79862e-07)
(1.87178 -2.50203e-08 8.06373e-08)
(1.87178 2.7908e-08 -2.7355e-08)
(1.87178 -1.7393e-08 1.79021e-08)
(1.87178 -9.00669e-09 -6.22361e-08)
(1.87177 -2.82107e-08 5.60606e-08)
(1.87178 3.79559e-09 -1.04312e-07)
(1.87178 -3.53693e-10 8.20969e-08)
(1.87177 9.66376e-09 -4.88506e-08)
(1.87178 -1.46903e-08 3.25981e-08)
(1.87177 -1.51631e-08 -4.08117e-08)
(1.87178 -5.35457e-08 6.75557e-09)
(1.87176 1.63497e-08 -4.90893e-08)
(1.87178 -1.16709e-07 -1.53003e-07)
(1.87175 7.66069e-08 1.59475e-07)
(1.87178 -4.72684e-08 -3.21439e-07)
(1.87176 1.35184e-07 3.40378e-07)
(1.87179 -4.11662e-08 -4.26402e-07)
(1.87177 1.42753e-07 6.6051e-07)
(1.87179 4.64621e-08 -4.1086e-07)
(1.8718 -6.51316e-08 5.36604e-07)
(1.54847 -0.00526141 0.0259612)
(2.03941 -0.00103761 0.00404231)
(1.81113 8.31488e-05 -0.00054544)
(1.88576 5.85385e-05 -0.000162558)
(1.86768 7.49002e-06 -2.02658e-05)
(1.87293 2.00965e-06 -4.23439e-06)
(1.87176 -2.75276e-06 6.48297e-06)
(1.87178 1.95081e-07 -2.25583e-06)
(1.87183 1.35089e-07 -9.76614e-07)
(1.8718 1.34829e-07 1.7594e-07)
(1.87179 4.22765e-08 -6.15811e-07)
(1.87179 1.09601e-09 4.49577e-08)
(1.87178 7.55124e-08 -1.99165e-07)
(1.87177 -4.8885e-08 1.1726e-07)
(1.87177 3.13829e-08 -8.84042e-08)
(1.87178 -5.23146e-08 1.26537e-08)
(1.87178 8.28069e-08 -1.78737e-07)
(1.87178 -4.34133e-08 7.88319e-08)
(1.87178 2.98376e-08 -2.61846e-08)
(1.87178 -1.54575e-08 1.6478e-08)
(1.87178 6.91768e-09 -6.05924e-08)
(1.87177 -2.84476e-08 5.58193e-08)
(1.87178 3.6211e-08 -1.01294e-07)
(1.87178 -1.099e-08 7.97407e-08)
(1.87177 1.07683e-08 -4.67651e-08)
(1.87178 -1.71445e-08 2.94078e-08)
(1.87177 -7.12226e-10 -3.7639e-08)
(1.87178 -2.72427e-08 6.52777e-09)
(1.87176 5.72373e-08 -4.57828e-08)
(1.87178 -4.52476e-08 -1.55611e-07)
(1.87175 7.4949e-08 1.68177e-07)
(1.87178 5.4941e-08 -3.26306e-07)
(1.87176 2.56585e-08 3.42138e-07)
(1.87179 3.08177e-08 -4.34516e-07)
(1.87177 -4.05973e-08 6.66088e-07)
(1.87179 9.90879e-08 -4.20215e-07)
(1.8718 -2.58641e-07 5.35748e-07)
(1.4863 -0.0150925 0.0259994)
(1.92813 -0.00286544 0.00414089)
(1.69338 0.000268306 -0.00055151)
(1.77356 0.000139913 -0.000144153)
(1.75545 1.81684e-05 -2.01136e-05)
(1.76095 3.18457e-06 -3.65056e-06)
(1.75967 -5.10234e-06 6.06014e-06)
(1.75969 8.8227e-07 -2.18303e-06)
(1.75975 5.45899e-07 -9.03902e-07)
(1.75972 1.4008e-07 2.0751e-07)
(1.75972 2.3215e-07 -6.02711e-07)
(1.75972 2.50329e-08 6.10445e-08)
(1.75971 1.42065e-07 -1.92611e-07)
(1.75971 -8.00596e-08 1.16153e-07)
(1.7597 5.7306e-08 -8.34212e-08)
(1.75971 -4.68585e-08 1.94419e-08)
(1.75971 1.34587e-07 -1.76493e-07)
(1.75971 -5.83636e-08 7.80737e-08)
(1.75971 3.09197e-08 -2.68033e-08)
(1.75971 -1.14474e-08 1.65631e-08)
(1.75971 1.97593e-08 -5.91834e-08)
(1.75971 -3.1269e-08 6.00488e-08)
(1.75971 6.19285e-08 -9.72914e-08)
(1.75971 -2.37481e-08 7.99723e-08)
(1.75971 1.25979e-08 -4.71629e-08)
(1.75971 -1.64467e-08 2.69351e-08)
(1.7597 8.0562e-09 -3.26006e-08)
(1.75971 -1.17022e-08 1.39311e-08)
(1.75969 7.74899e-08 -3.47915e-08)
(1.75972 2.05074e-08 -1.51586e-07)
(1.75968 3.91504e-08 1.87412e-07)
(1.75972 1.54478e-07 -3.29916e-07)
(1.75969 -8.55675e-08 3.39488e-07)
(1.75972 1.36451e-07 -4.56787e-07)
(1.7597 -2.28038e-07 6.72188e-07)
(1.75973 1.80139e-07 -4.46329e-07)
(1.75973 -4.1585e-07 5.28439e-07)
(1.33871 -0.0224184 0.0255953)
(1.68417 -0.00387666 0.00407229)
(1.44703 0.000463559 -0.000560567)
(1.53474 0.000131441 -0.000103662)
(1.51621 2.13736e-05 -1.92256e-05)
(1.52204 3.12529e-06 -2.65393e-06)
(1.5206 -5.88776e-06 5.21754e-06)
(1.52064 1.29783e-06 -1.95145e-06)
(1.52072 7.16805e-07 -7.73576e-07)
(1.5207 -3.44448e-08 2.55327e-07)
(1.5207 3.47814e-07 -5.60931e-07)
(1.5207 -3.12431e-08 9.05762e-08)
(1.5207 1.82788e-07 -1.83936e-07)
(1.52069 -1.2723e-07 1.18297e-07)
(1.52069 9.70919e-08 -8.34809e-08)
(1.5207 -7.23263e-08 3.74826e-08)
(1.5207 1.65603e-07 -1.67715e-07)
(1.5207 -7.12514e-08 7.6227e-08)
(1.5207 3.3687e-08 -2.83995e-08)
(1.5207 -1.40807e-08 2.02891e-08)
(1.5207 3.42042e-08 -5.9738e-08)
(1.5207 -5.19395e-08 6.82754e-08)
(1.5207 8.62684e-08 -9.45066e-08)
(1.5207 -4.7062e-08 8.26626e-08)
(1.5207 2.87977e-08 -5.13604e-08)
(1.5207 -2.95424e-08 3.09391e-08)
(1.52069 2.69854e-08 -3.34857e-08)
(1.5207 -2.61532e-08 2.8587e-08)
(1.52068 6.51818e-08 -1.93889e-08)
(1.52071 7.69647e-08 -1.40638e-07)
(1.52068 -5.16398e-08 2.08671e-07)
(1.52071 2.74584e-07 -3.28945e-07)
(1.52069 -2.41008e-07 3.40364e-07)
(1.52072 3.19972e-07 -4.83579e-07)
(1.5207 -4.32206e-07 6.63923e-07)
(1.52072 3.75511e-07 -4.82091e-07)
(1.52072 -5.86998e-07 5.25339e-07)
(1.05029 -0.0231107 0.0231109)
(1.25971 -0.00336345 0.00336356)
(1.04761 0.000524115 -0.000524317)
(1.13409 4.30742e-05 -4.31182e-05)
(1.11569 1.84466e-05 -1.8018e-05)
(1.12148 1.91958e-06 -9.55856e-07)
(1.11999 -5.17805e-06 3.72145e-06)
(1.12007 1.66554e-06 -1.54002e-06)
(1.12016 5.07159e-07 -5.16783e-07)
(1.12014 -2.41254e-07 2.21841e-07)
(1.12014 3.73086e-07 -4.44527e-07)
(1.12015 -1.28841e-07 9.64551e-08)
(1.12015 1.52855e-07 -1.51747e-07)
(1.12014 -1.63251e-07 9.78266e-08)
(1.12014 1.09821e-07 -6.55461e-08)
(1.12014 -7.05804e-08 3.9766e-08)
(1.12015 1.74558e-07 -1.34381e-07)
(1.12015 -8.64875e-08 6.50071e-08)
(1.12015 4.48124e-08 -2.58294e-08)
(1.12015 -1.09089e-08 1.92439e-08)
(1.12015 2.79279e-08 -4.86484e-08)
(1.12015 -7.22796e-08 5.9619e-08)
(1.12015 8.44004e-08 -7.49382e-08)
(1.12015 -6.36241e-08 6.76158e-08)
(1.12015 4.04282e-08 -4.11649e-08)
(1.12015 -2.13536e-08 2.26257e-08)
(1.12015 -3.70903e-09 -2.12936e-08)
(1.12015 -5.78335e-08 2.68059e-08)
(1.12014 1.56514e-08 -4.81421e-09)
(1.12016 7.79541e-08 -1.10869e-07)
(1.12014 -1.7108e-07 1.87253e-07)
(1.12016 3.45478e-07 -2.74353e-07)
(1.12015 -2.74396e-07 2.81585e-07)
(1.12017 4.79776e-07 -4.17285e-07)
(1.12015 -5.59777e-07 5.52498e-07)
(1.12017 5.80408e-07 -4.23677e-07)
(1.12016 -5.58822e-07 4.36639e-07)
(0.508699 -0.0107824 0.0136116)
(0.565701 -0.00118117 0.00151414)
(0.44752 0.000356538 -0.00029649)
(0.500457 -7.25468e-05 7.78645e-06)
(0.488164 2.07635e-05 -1.17567e-05)
(0.49194 -2.56319e-06 2.95486e-07)
(0.490991 -9.04863e-07 1.61578e-06)
(0.491024 7.36654e-08 -7.69449e-07)
(0.49111 2.18984e-07 -2.62272e-07)
(0.49109 -3.42318e-07 1.3248e-07)
(0.491091 1.8654e-07 -2.47597e-07)
(0.491101 -1.70244e-07 6.09978e-08)
(0.491096 1.23499e-07 -9.02932e-08)
(0.491096 -1.26233e-07 5.95712e-08)
(0.491094 1.21493e-07 -4.67018e-08)
(0.491096 -1.08729e-07 2.87656e-08)
(0.491098 7.20378e-08 -7.03144e-08)
(0.491101 -4.37523e-08 3.62199e-08)
(0.491099 2.19898e-08 -1.51849e-08)
(0.4911 -3.81266e-08 1.33703e-08)
(0.491102 5.5714e-08 -3.35797e-08)
(0.491098 -7.09048e-08 3.55964e-08)
(0.4911 8.51028e-08 -4.9473e-08)
(0.491101 -6.79704e-08 4.28642e-08)
(0.491099 6.62573e-08 -3.07287e-08)
(0.491101 -7.98715e-08 2.53555e-08)
(0.491099 9.94586e-08 -3.4748e-08)
(0.491101 -4.75821e-08 1.173e-08)
(0.491093 1.49802e-08 -1.27264e-08)
(0.491106 1.02171e-07 -7.15655e-08)
(0.491092 -1.21401e-07 9.17153e-08)
(0.491109 2.64989e-07 -1.56614e-07)
(0.491099 -3.90836e-07 1.92468e-07)
(0.491113 3.70667e-07 -2.27308e-07)
(0.491102 -4.04898e-07 3.07872e-07)
(0.49111 4.72527e-07 -2.39135e-07)
(0.491108 -5.79294e-07 2.89594e-07)
(0.620351 0.0107344 0.012127)
(0.722938 0.00125236 0.00153482)
(0.59219 -0.000379465 -0.000263085)
(0.648278 6.9325e-05 -2.63467e-05)
(0.63543 -2.04923e-05 -1.06803e-05)
(0.639366 2.54073e-06 -1.28486e-07)
(0.638403 8.47603e-07 1.88293e-06)
(0.638419 -2.64042e-07 -1.01295e-06)
(0.638509 -2.82757e-07 -3.86938e-07)
(0.638485 3.04316e-07 6.01772e-08)
(0.638485 -2.41372e-07 -2.75298e-07)
(0.638493 1.36701e-07 6.20036e-09)
(0.638488 -1.28744e-07 -8.66153e-08)
(0.638487 8.54266e-08 4.05469e-08)
(0.638485 -9.08447e-08 -3.42545e-08)
(0.638487 8.30208e-08 -1.88632e-09)
(0.638489 -5.2175e-08 -6.53014e-08)
(0.638492 2.83444e-08 3.1283e-08)
(0.63849 -8.95875e-09 -9.11407e-09)
(0.63849 3.5522e-08 3.50437e-09)
(0.638493 -6.41701e-08 -2.62397e-08)
(0.638489 6.25622e-08 1.41558e-08)
(0.63849 -8.40889e-08 -3.83477e-08)
(0.638491 6.91624e-08 3.1075e-08)
(0.63849 -6.28805e-08 -1.59253e-08)
(0.638492 8.06537e-08 8.41958e-09)
(0.638489 -1.11177e-07 -1.98587e-08)
(0.638492 2.22132e-08 -1.36785e-08)
(0.638482 -6.89696e-09 -1.57129e-08)
(0.638497 -1.46459e-07 -7.7815e-08)
(0.63848 1.53626e-07 6.60699e-08)
(0.638499 -2.74981e-07 -1.17406e-07)
(0.638486 4.36384e-07 1.50266e-07)
(0.638504 -3.79795e-07 -1.56875e-07)
(0.638491 4.49492e-07 2.66733e-07)
(0.638501 -4.34061e-07 -1.2244e-07)
(0.638501 6.10076e-07 1.80327e-07)
(1.33871 0.0255953 0.0224186)
(1.68416 0.00407236 0.00387692)
(1.44703 -0.000560535 -0.000463855)
(1.53474 -0.000103721 -0.000131573)
(1.51621 -1.93285e-05 -2.07831e-05)
(1.52203 -2.37263e-06 -1.48925e-06)
(1.5206 5.30761e-06 4.06472e-06)
(1.52064 -2.06942e-06 -1.49194e-06)
(1.52073 -8.71556e-07 -8.4214e-07)
(1.5207 2.43632e-07 4.9334e-08)
(1.5207 -5.72401e-07 -4.46115e-07)
(1.5207 7.71865e-08 -3.00211e-08)
(1.5207 -1.91637e-07 -1.5699e-07)
(1.52069 1.0951e-07 6.36617e-08)
(1.52069 -8.51648e-08 -6.68895e-08)
(1.5207 3.73684e-08 -3.0741e-09)
(1.5207 -1.69772e-07 -9.74308e-08)
(1.5207 8.01891e-08 3.1449e-08)
(1.5207 -3.0838e-08 1.70609e-09)
(1.5207 2.19147e-08 6.18885e-09)
(1.5207 -6.26922e-08 -4.98543e-08)
(1.5207 6.59893e-08 1.61369e-08)
(1.5207 -1.02473e-07 -6.75591e-08)
(1.5207 9.01513e-08 4.61596e-08)
(1.5207 -5.6875e-08 -2.11448e-08)
(1.5207 3.86586e-08 1.92606e-08)
(1.52069 -3.90594e-08 -5.21401e-08)
(1.5207 3.00871e-08 -3.95419e-08)
(1.52068 -2.85768e-08 -3.31687e-08)
(1.52071 -1.33819e-07 -1.66596e-07)
(1.52068 1.89175e-07 1.02079e-07)
(1.52071 -3.11855e-07 -2.18946e-07)
(1.52069 3.32262e-07 3.08538e-07)
(1.52072 -4.60164e-07 -2.56605e-07)
(1.5207 6.46201e-07 4.62335e-07)
(1.52072 -4.49024e-07 -1.81759e-07)
(1.52072 5.1986e-07 3.65143e-07)
(1.7421 0.0259417 0.0259417)
(2.29971 0.00505906 0.00505904)
(2.04005 -0.000472751 -0.000472731)
(2.12143 -0.000232578 -0.000232561)
(2.1031 -3.01273e-05 -3.01337e-05)
(2.10871 -2.56931e-06 -2.7156e-06)
(2.10745 5.78396e-06 5.8722e-06)
(2.10745 -1.85204e-06 -1.85778e-06)
(2.10751 -1.25844e-06 -1.2096e-06)
(2.10747 2.79923e-08 -2.43721e-09)
(2.10746 -5.89138e-07 -5.74413e-07)
(2.10746 -7.62954e-08 -7.71416e-08)
(2.10745 -1.89763e-07 -1.94954e-07)
(2.10745 4.40661e-08 5.88726e-08)
(2.10744 -4.96018e-08 -6.1988e-08)
(2.10745 -2.19287e-08 -1.31022e-08)
(2.10745 -1.26769e-07 -1.34415e-07)
(2.10745 3.35911e-08 3.82627e-08)
(2.10745 5.99397e-09 2.63041e-09)
(2.10745 -1.5843e-09 3.29697e-09)
(2.10745 -5.4964e-08 -5.79335e-08)