/*--------------------------------*- C++ -*----------------------------------*\
  =========                 |
  \\      /  F ield         | OpenFOAM: The Open Source CFD Toolbox
   \\    /   O peration     | Website:  https://openfoam.org
    \\  /    A nd           | Version:  13
     \\/     M anipulation  |
\*---------------------------------------------------------------------------*/
FoamFile
{
    format      ascii;
    class       surfaceScalarField;
    location    "26";
    object      phi;
}
// * * * * * * * * * * * * * * * * * * * * * * * * * * * * * * * * * * * * * //

dimensions      [0 3 -1 0 0 0 0];

internalField   nonuniform List<scalar> 
28364
(
9.04615e-13
3.80024e-12
3.80024e-12
5.92866e-13
1.55882e-13
1.55886e-13
7.57737e-13
-8.24434e-14
-8.24379e-14
6.65919e-13
4.5917e-14
4.59053e-14
7.22283e-13
-2.81802e-14
-2.81979e-14
6.87973e-13
1.71708e-14
1.71477e-14
7.08573e-13
-1.02812e-14
-1.03127e-14
6.96557e-13
6.06278e-15
6.05135e-15
7.03066e-13
-3.32279e-15
-3.32385e-15
7.00053e-13
1.56713e-15
1.55491e-15
7.01252e-13
-6.23189e-16
-6.21745e-16
7.0096e-13
1.50308e-16
1.6084e-16
7.00861e-13
2.03322e-17
3.86756e-17
7.01049e-13
-1.05516e-16
-9.87202e-17
7.00829e-13
1.03949e-16
1.05204e-16
7.0103e-13
-1.07444e-16
-1.0501e-16
7.00832e-13
9.31036e-17
9.42383e-17
7.0103e-13
-9.58234e-17
-9.64716e-17
7.00842e-13
1.01995e-16
9.71463e-17
7.01031e-13
-9.42325e-17
-9.2379e-17
7.00837e-13
9.453e-17
9.55059e-17
7.01037e-13
-9.28071e-17
-9.35287e-17
7.00852e-13
9.5888e-17
9.41376e-17
7.01027e-13
-8.14095e-17
-8.27127e-17
7.00861e-13
7.75652e-17
7.73803e-17
7.01016e-13
-7.69108e-17
-7.37863e-17
7.00871e-13
6.74191e-17
6.9909e-17
7.01005e-13
-6.85988e-17
-6.80794e-17
7.0088e-13
5.94073e-17
5.88716e-17
7.01e-13
-5.61318e-17
-5.79034e-17
7.00885e-13
5.96799e-17
5.7365e-17
7.00998e-13
-5.99124e-17
-5.66085e-17
7.00879e-13
5.37327e-17
5.66241e-17
7.01002e-13
-5.97636e-17
-5.8209e-17
7.00887e-13
5.92587e-17
5.97298e-17
7.00992e-13
-5.20476e-17
-5.14721e-17
7.00893e-13
5.17977e-17
5.06041e-17
7.00989e-13
-4.30834e-17
-4.44512e-17
7.00894e-13
4.54373e-17
4.44249e-17
7.00981e-13
-4.06983e-17
-3.77819e-17
7.009e-13
3.56031e-17
4.03679e-17
7.00973e-13
-3.33584e-17
-3.36263e-17
7.00906e-13
2.98362e-17
2.97326e-17
7.00967e-13
-2.71314e-17
-2.7295e-17
7.0091e-13
2.67478e-17
2.63946e-17
7.00965e-13
-2.6158e-17
-2.60246e-17
7.00915e-13
2.35917e-17
2.38222e-17
7.0096e-13
-2.16139e-17
-2.13044e-17
7.00916e-13
2.16079e-17
2.19614e-17
7.00961e-13
-2.18466e-17
-1.78473e-17
1.432e-17
2.03997e-17
1.74676e-12
4.47273e-12
6.08585e-12
1.3744e-12
2.33096e-13
2.952e-13
1.55383e-12
-1.16872e-13
-1.45031e-13
1.46155e-12
6.0866e-14
7.73471e-14
1.51911e-12
-3.7976e-14
-4.78048e-14
1.48396e-12
2.33186e-14
2.90286e-14
1.50507e-12
-1.40912e-14
-1.7287e-14
1.49278e-12
8.66043e-15
9.97673e-15
1.49934e-12
-5.02114e-15
-5.26205e-15
1.49647e-12
2.51736e-15
2.23252e-15
1.49753e-12
-1.09887e-15
-7.15851e-16
1.49736e-12
3.3379e-16
4.57532e-17
1.49717e-12
-1.04087e-16
1.99485e-16
1.49739e-12
-1.11387e-16
-2.67021e-16
1.49714e-12
8.22188e-17
2.4122e-16
1.49736e-12
-1.16889e-16
-2.37222e-16
1.49714e-12
6.97785e-17
2.05721e-16
1.49735e-12
-8.39451e-17
-2.09583e-16
1.49716e-12
1.16181e-16
2.17555e-16
1.49736e-12
-8.81151e-17
-2.01619e-16
1.49715e-12
9.04394e-17
2.03005e-16
1.49737e-12
-7.89748e-17
-1.95932e-16
1.49717e-12
1.12629e-16
1.96479e-16
1.49736e-12
-7.53172e-17
-1.65014e-16
1.49718e-12
7.73637e-17
1.49368e-16
1.49735e-12
-8.7223e-17
-1.45389e-16
1.49719e-12
6.01832e-17
1.41988e-16
1.49733e-12
-7.52458e-17
-1.45026e-16
1.4972e-12
4.76704e-17
1.27367e-16
1.49733e-12
-4.12913e-17
-1.25657e-16
1.49721e-12
5.79108e-17
1.28848e-16
1.49733e-12
-5.99647e-17
-1.28457e-16
1.4972e-12
3.15972e-17
1.25553e-16
1.49733e-12
-5.08159e-17
-1.29647e-16
1.49721e-12
6.23896e-17
1.31806e-16
1.49732e-12
-4.58111e-17
-1.12936e-16
1.49722e-12
5.66506e-17
1.09588e-16
1.49732e-12
-3.01474e-17
-9.25284e-17
1.49722e-12
4.98214e-17
8.52485e-17
1.49731e-12
-4.26891e-17
-6.92838e-17
1.49722e-12
3.63974e-17
7.46276e-17
1.4973e-12
-3.64619e-17
-6.1242e-17
1.49723e-12
3.44364e-17
4.82397e-17
1.49729e-12
-3.18126e-17
-4.36231e-17
1.49723e-12
2.95629e-17
4.96616e-17
1.49729e-12
-2.67668e-17
-5.14192e-17
1.49724e-12
2.30881e-17
4.71454e-17
1.49729e-12
-1.99859e-17
-4.28473e-17
1.49724e-12
2.21941e-17
4.38873e-17
1.4973e-12
-1.96739e-17
-4.42186e-17
7.39056e-18
1.86656e-17
2.25793e-12
4.11671e-12
6.60319e-12
1.90293e-12
2.35843e-13
3.52299e-13
2.06775e-12
-1.15262e-13
-1.66461e-13
1.98732e-12
5.57081e-14
8.56034e-14
2.03813e-12
-3.55016e-14
-5.33218e-14
2.00705e-12
2.1975e-14
3.2447e-14
2.02564e-12
-1.33664e-14
-1.92991e-14
2.01498e-12
8.4444e-15
1.11694e-14
2.02047e-12
-5.02967e-15
-5.88849e-15
2.01828e-12
2.57211e-15
2.44556e-15
2.01897e-12
-1.15737e-15
-7.63374e-16
2.01897e-12
3.68944e-16
1.83587e-17
2.01869e-12
-1.64608e-16
2.23134e-16
2.01894e-12
-9.54238e-17
-3.07053e-16
2.01868e-12
4.74446e-17
2.6517e-16
2.01889e-12
-9.73345e-17
-2.63015e-16
2.01867e-12
3.43567e-17
2.21693e-16
2.01889e-12
-5.26612e-17
-2.33058e-16
2.01869e-12
1.00558e-16
2.42483e-16
2.0189e-12
-6.25082e-17
-2.21114e-16
2.01869e-12
6.50887e-17
2.24549e-16
2.01891e-12
-4.85753e-17
-2.17891e-16
2.01872e-12
9.71636e-17
2.23648e-16
2.01891e-12
-4.87424e-17
-1.84991e-16
2.01873e-12
5.52163e-17
1.6925e-16
2.01889e-12
-7.27031e-17
-1.65642e-16
2.01873e-12
3.7266e-17
1.58162e-16
2.01888e-12
-6.3423e-17
-1.59769e-16
2.01874e-12
2.71512e-17
1.3739e-16
2.01887e-12
-1.75027e-17
-1.37908e-16
2.01875e-12
4.14326e-17
1.43072e-16
2.01887e-12
-4.38252e-17
-1.43961e-16
2.01873e-12
4.31741e-18
1.36977e-16
2.01887e-12
-3.23229e-17
-1.4327e-16
2.01875e-12
5.06281e-17
1.45288e-16
2.01886e-12
-2.96563e-17
-1.23571e-16
2.01876e-12
4.5911e-17
1.23326e-16
2.01887e-12
-1.06462e-17
-1.01827e-16
2.01876e-12
3.98844e-17
9.85739e-17
2.01886e-12
-3.22478e-17
-8.07479e-17
2.01877e-12
2.55734e-17
8.48675e-17
2.01885e-12
-2.94059e-17
-6.91853e-17
2.01878e-12
2.86917e-17
5.60267e-17
2.01884e-12
-2.63694e-17
-5.14117e-17
2.01878e-12
2.3641e-17
5.69193e-17
2.01884e-12
-2.03608e-17
-5.87627e-17
2.01879e-12
1.60873e-17
5.36363e-17
2.01883e-12
-1.3118e-17
-4.77022e-17
2.01879e-12
1.58965e-17
5.01663e-17
2.01885e-12
-1.44416e-17
-4.69126e-17
-4.46337e-18
2.62315e-17
2.59943e-12
3.31303e-12
6.70935e-12
2.26815e-12
1.96617e-13
3.70555e-13
2.42265e-12
-9.61619e-14
-1.73632e-13
2.3484e-12
4.33077e-14
8.66687e-14
2.39551e-12
-2.81824e-14
-5.44737e-14
2.36669e-12
1.75323e-14
3.32818e-14
2.38387e-12
-1.06625e-14
-1.98642e-14
2.37414e-12
6.86259e-15
1.16046e-14
2.37903e-12
-4.13926e-15
-6.17893e-15
2.37719e-12
2.15408e-15
2.55661e-15
2.3777e-12
-9.81315e-16
-8.12778e-16
2.37778e-12
3.14118e-16
2.95586e-17
2.37746e-12
-1.76481e-16
2.13723e-16
2.37771e-12
-8.33873e-17
-3.06649e-16
2.37744e-12
2.7465e-17
2.55857e-16
2.37765e-12
-8.34752e-17
-2.54607e-16
2.37743e-12
1.76415e-17
2.07271e-16
2.37765e-12
-3.34591e-17
-2.24091e-16
2.37746e-12
8.73097e-17
2.36061e-16
2.37766e-12
-4.66706e-17
-2.11756e-16
2.37745e-12
4.66221e-17
2.17805e-16
2.37768e-12
-2.67661e-17
-2.12944e-16
2.37749e-12
7.73184e-17
2.23327e-16
2.37768e-12
-2.63131e-17
-1.81321e-16
2.3775e-12
3.45494e-17
1.66743e-16
2.37766e-12
-5.58516e-17
-1.64384e-16
2.37751e-12
1.87567e-17
1.54731e-16
2.37764e-12
-5.23004e-17
-1.56023e-16
2.37751e-12
1.66136e-17
1.29369e-16
2.37764e-12
-4.67216e-18
-1.30189e-16
2.37752e-12
3.16262e-17
1.36242e-16
2.37764e-12
-3.3949e-17
-1.37389e-16
2.3775e-12
-8.77193e-18
1.28064e-16
2.37764e-12
-2.22723e-17
-1.37369e-16
2.37752e-12
4.1336e-17
1.41088e-16
2.37763e-12
-2.04756e-17
-1.17619e-16
2.37753e-12
3.67298e-17
1.20293e-16
2.37764e-12
1.05386e-18
-9.70614e-17
2.37754e-12
2.95974e-17
9.76612e-17
2.37763e-12
-2.25273e-17
-7.96759e-17
2.37755e-12
1.35544e-17
8.50827e-17
2.37762e-12
-2.12656e-17
-6.92784e-17
2.37755e-12
2.10676e-17
5.62599e-17
2.37761e-12
-1.91252e-17
-5.16386e-17
2.37755e-12
1.69057e-17
5.71581e-17
2.37761e-12
-1.42354e-17
-5.86071e-17
2.37756e-12
1.02159e-17
5.27212e-17
2.37761e-12
-8.57546e-18
-4.55838e-17
2.37756e-12
1.09667e-17
4.86024e-17
2.37762e-12
-1.24398e-17
-4.39791e-17
-1.04986e-17
2.27199e-17
2.82626e-12
2.29322e-12
6.69866e-12
2.51727e-12
1.37066e-13
3.68583e-13
2.66448e-12
-6.80136e-14
-1.75377e-13
2.59322e-12
2.89367e-14
8.56435e-14
2.63834e-12
-1.91686e-14
-5.41786e-14
2.61078e-12
1.19859e-14
3.31352e-14
2.62717e-12
-7.24298e-15
-1.97964e-14
2.61796e-12
4.74061e-15
1.16188e-14
2.62251e-12
-2.87026e-15
-6.21745e-15
2.62084e-12
1.53732e-15
2.57064e-15
2.62127e-12
-7.05931e-16
-8.23738e-16
2.62138e-12
2.23057e-16
3.3258e-17
2.62105e-12
-1.66408e-16
2.09027e-16
2.6213e-12
-6.7631e-17
-3.09042e-16
2.62103e-12
1.35795e-17
2.52639e-16
2.62124e-12
-6.49293e-17
-2.5747e-16
2.62101e-12
7.69278e-18
2.04183e-16
2.62124e-12
-2.00999e-17
-2.20331e-16
2.62105e-12
6.84681e-17
2.38633e-16
2.62125e-12
-3.29514e-17
-2.10002e-16
2.62104e-12
2.9324e-17
2.16741e-16
2.62127e-12
-1.20021e-17
-2.08106e-16
2.62109e-12
5.35845e-17
2.23567e-16
2.62127e-12
-9.0072e-18
-1.77021e-16
2.6211e-12
1.64554e-17
1.63729e-16
2.62125e-12
-3.69945e-17
-1.63807e-16
2.6211e-12
4.7856e-18
1.51161e-16
2.62123e-12
-3.63753e-17
-1.587e-16
2.62109e-12
9.21326e-18
1.28097e-16
2.62123e-12
2.70272e-18
-1.27407e-16
2.62111e-12
2.18455e-17
1.3621e-16
2.62123e-12
-2.43998e-17
-1.36946e-16
2.62108e-12
-1.37829e-17
1.23877e-16
2.62123e-12
-1.4905e-17
-1.36127e-16
2.62111e-12
2.80666e-17
1.43667e-16
2.62122e-12
-1.3599e-17
-1.16204e-16
2.62112e-12
2.65225e-17
1.20319e-16
2.62123e-12
7.00653e-18
-9.39056e-17
2.62113e-12
1.83391e-17
9.74927e-17
2.62122e-12
-1.48511e-17
-7.74323e-17
2.62114e-12
2.07943e-18
8.40057e-17
2.62121e-12
-1.25596e-17
-6.95951e-17
2.62115e-12
1.27554e-17
5.59005e-17
2.62121e-12
-1.20233e-17
-5.03987e-17
2.62115e-12
1.07016e-17
5.65648e-17
2.62121e-12
-8.9004e-18
-5.78245e-17
2.62115e-12
5.7117e-18
5.1614e-17
2.6212e-12
-5.29966e-18
-4.47644e-17
2.62116e-12
7.00736e-18
4.76653e-17
2.62121e-12
-1.06443e-17
-4.45778e-17
-1.43109e-17
2.21317e-17
2.96584e-12
1.16857e-12
6.6639e-12
2.67357e-12
6.96185e-14
3.59761e-13
2.81605e-12
-3.50893e-14
-1.75425e-13
2.74607e-12
1.44056e-14
8.45268e-14
2.79018e-12
-9.63784e-15
-5.36848e-14
2.76327e-12
6.08051e-15
3.28399e-14
2.77926e-12
-3.60295e-15
-1.96081e-14
2.77032e-12
2.42977e-15
1.15287e-14
2.7747e-12
-1.46766e-15
-6.173e-15
2.77311e-12
8.56406e-16
2.54528e-15
2.7735e-12
-3.98205e-16
-8.16569e-16
2.77362e-12
1.23429e-16
2.97716e-17
2.77329e-12
-1.44679e-16
2.05373e-16
2.77354e-12
-4.83039e-17
-3.10343e-16
2.77327e-12
2.87111e-18
2.50955e-16
2.77347e-12
-4.51438e-17
-2.57474e-16
2.77324e-12
2.01643e-18
2.02541e-16
2.77347e-12
-9.17044e-18
-2.19169e-16
2.77328e-12
4.70559e-17
2.38976e-16
2.77349e-12
-2.06345e-17
-2.0869e-16
2.77328e-12
1.34963e-17
2.15419e-16
2.77351e-12
-4.51027e-19
-2.06284e-16
2.77332e-12
2.8377e-17
2.22618e-16
2.77351e-12
5.11178e-18
-1.74835e-16
2.77334e-12
5.79896e-20
1.62051e-16
2.77349e-12
-1.7333e-17
-1.629e-16
2.77333e-12
-6.3585e-18
1.49232e-16
2.77347e-12
-1.93717e-17
-1.5846e-16
2.77333e-12
4.03803e-18
1.27297e-16
2.77347e-12
6.99779e-18
-1.26332e-16
2.77334e-12
1.22855e-17
1.35988e-16
2.77346e-12
-1.51031e-17
-1.36562e-16
2.77332e-12
-1.42526e-17
1.21939e-16
2.77346e-12
-8.83139e-18
-1.35587e-16
2.77334e-12
1.39138e-17
1.43593e-16
2.77346e-12
-7.8666e-18
-1.15626e-16
2.77336e-12
1.58632e-17
1.20174e-16
2.77347e-12
9.79647e-18
-9.27826e-17
2.77337e-12
6.71042e-18
9.7093e-17
2.77346e-12
-7.68629e-18
-7.67411e-17
2.77338e-12
-8.16113e-18
8.26602e-17
2.77345e-12
-4.05357e-18
-6.97239e-17
2.77338e-12
4.09829e-18
5.56907e-17
2.77344e-12
-4.759e-18
-4.97388e-17
2.77339e-12
4.85907e-18
5.64716e-17
2.77345e-12
-4.00374e-18
-5.74437e-17
2.77339e-12
1.9709e-18
5.1102e-17
2.77344e-12
-2.71305e-18
-4.45425e-17
2.7734e-12
3.47413e-18
4.74141e-17
2.77345e-12
-8.63495e-18
-4.56406e-17
-1.56812e-17
2.0894e-17
3.03251e-12
1.60985e-17
6.64114e-12
2.74909e-12
4.50427e-18
3.53083e-13
2.88924e-12
-3.61011e-17
-1.75226e-13
2.81969e-12
5.31319e-17
8.39183e-14
2.86338e-12
2.44606e-17
-5.33962e-14
2.83675e-12
6.83305e-17
3.26664e-14
2.85256e-12
9.29053e-17
-1.949e-14
2.84374e-12
6.25313e-17
1.14649e-14
2.84805e-12
-2.9381e-17
-6.1327e-15
2.84649e-12
1.6037e-16
2.52097e-15
2.84687e-12
-8.19715e-17
-8.08749e-16
2.84699e-12
2.25219e-17
2.659e-17
2.84666e-12
-1.15871e-16
2.03014e-16
2.8469e-12
-2.7135e-17
-3.10518e-16
2.84663e-12
-6.21568e-18
2.50045e-16
2.84684e-12
-2.59242e-17
-2.5594e-16
2.84661e-12
-1.28766e-18
2.01579e-16
2.84683e-12
9.20352e-19
-2.18945e-16
2.84665e-12
2.53262e-17
2.37683e-16
2.84685e-12
-9.30648e-18
-2.07489e-16
2.84664e-12
-1.0997e-18
2.14359e-16
2.84687e-12
1.01878e-17
-2.06348e-16
2.84669e-12
3.20195e-18
2.21412e-16
2.84688e-12
1.76131e-17
-1.74306e-16
2.8467e-12
-1.53014e-17
1.61467e-16
2.84686e-12
2.15373e-18
-1.61969e-16
2.8467e-12
-1.59962e-17
1.48523e-16
2.84683e-12
-3.1432e-18
-1.57e-16
2.84669e-12
2.44325e-19
1.26736e-16
2.84683e-12
9.65775e-18
-1.25959e-16
2.84671e-12
3.4981e-18
1.35177e-16
2.84683e-12
-6.53049e-18
-1.35661e-16
2.84668e-12
-1.24912e-17
1.21141e-16
2.84683e-12
-3.32968e-18
-1.35325e-16
2.84671e-12
5.53267e-19
1.42256e-16
2.84682e-12
-2.74695e-18
-1.15222e-16
2.84672e-12
5.32238e-18
1.1975e-16
2.84683e-12
1.12072e-17
-9.28442e-17
2.84674e-12
-4.74391e-18
9.66797e-17
2.84683e-12
-4.01992e-19
-7.68661e-17
2.84675e-12
-1.73091e-17
8.18568e-17
2.84682e-12
4.13037e-18
-7.00539e-17
2.84675e-12
-4.66452e-18
5.56868e-17
2.84681e-12
2.77886e-18
-4.95784e-17
2.84675e-12
-9.2451e-19
5.68611e-17
2.84681e-12
7.78531e-19
-5.75077e-17
2.84676e-12
-1.49432e-18
5.10696e-17
2.84681e-12
-4.20444e-19
-4.46219e-17
2.84676e-12
9.48939e-20
4.74798e-17
2.84682e-12
-6.51912e-18
-4.64825e-17
-1.49004e-17
1.96931e-17
3.03251e-12
-1.16853e-12
6.64113e-12
2.74909e-12
-6.96074e-14
3.53081e-13
2.88924e-12
3.50179e-14
-1.75226e-13
2.81969e-12
-1.4302e-14
8.3921e-14
2.86338e-12
9.6835e-15
-5.33918e-14
2.83675e-12
-5.948e-15
3.26668e-14
2.85256e-12
3.78156e-15
-1.94813e-14
2.84374e-12
-2.30303e-15
1.14614e-14
2.84805e-12
1.4023e-15
-6.1238e-15
2.84649e-12
-5.39402e-16
2.51452e-15
2.84687e-12
2.3695e-16
-8.07168e-16
2.84699e-12
-7.90834e-17
2.54575e-17
2.84666e-12
-8.13944e-17
2.0103e-16
2.8469e-12
-4.69066e-18
-3.11285e-16
2.84663e-12
-1.56244e-17
2.50633e-16
2.84684e-12
-5.34778e-18
-2.56459e-16
2.84661e-12
-5.43245e-18
2.02619e-16
2.84683e-12
1.14228e-17
-2.19514e-16
2.84665e-12
2.46178e-18
2.37728e-16
2.84685e-12
2.95447e-18
-2.07932e-16
2.84664e-12
-1.60356e-17
2.14931e-16
2.84687e-12
2.10254e-17
-2.07449e-16
2.84669e-12
-2.18407e-17
2.21273e-16
2.84688e-12
2.94707e-17
-1.74817e-16
2.8467e-12
-3.01074e-17
1.61716e-16
2.84686e-12
2.15266e-17
-1.61898e-16
2.8467e-12
-2.49348e-17
1.4858e-16
2.84683e-12
1.32188e-17
-1.56939e-16
2.84669e-12
-4.11825e-18
1.2753e-16
2.84683e-12
1.20669e-17
-1.26269e-16
2.84671e-12
-5.42504e-18
1.35182e-16
2.84683e-12
2.21744e-18
-1.35557e-16
2.84668e-12
-1.03457e-17
1.21182e-16
2.84683e-12
2.89492e-18
-1.36088e-16
2.84671e-12
-1.27586e-17
1.42021e-16
2.84682e-12
2.75088e-18
-1.15485e-16
2.84672e-12
-5.40806e-18
1.19865e-16
2.84683e-12
1.2366e-17
-9.35446e-17
2.84674e-12
-1.59932e-17
9.67364e-17
2.84683e-12
7.21183e-18
-7.73887e-17
2.84675e-12
-2.53944e-17
8.14359e-17
2.84682e-12
1.22389e-17
-7.08962e-17
2.84675e-12
-1.34395e-17
5.59352e-17
2.84681e-12
1.03915e-17
-4.95147e-17
2.84675e-12
-6.77857e-18
5.75695e-17
2.84681e-12
5.61671e-18
-5.79323e-17
2.84676e-12
-4.97348e-18
5.13355e-17
2.84681e-12
2.00169e-18
-4.499e-17
2.84676e-12
-3.27674e-18
4.76645e-17
2.84682e-12
-3.77895e-18
-4.77321e-17
-1.26586e-17
1.87717e-17
2.96584e-12
-2.29318e-12
6.6639e-12
2.67357e-12
-1.3705e-13
3.59756e-13
2.81605e-12
6.7946e-14
-1.75426e-13
2.74607e-12
-2.88421e-14
8.45363e-14
2.79018e-12
1.92067e-14
-5.36742e-14
2.76327e-12
-1.18648e-14
3.28406e-14
2.77926e-12
7.40204e-15
-1.95841e-14
2.77032e-12
-4.60969e-15
1.15176e-14
2.7747e-12
2.78661e-15
-6.14687e-15
2.77311e-12
-1.23105e-15
2.52599e-15
2.7735e-12
5.53166e-16
-8.11922e-16
2.77362e-12
-1.81763e-16
2.70322e-17
2.77329e-12
-4.37549e-17
2.00518e-16
2.77354e-12
1.82433e-17
-3.12173e-16
2.77327e-12
-2.73228e-17
2.52692e-16
2.77347e-12
1.80902e-17
-2.58403e-16
2.77324e-12
-1.33377e-17
2.05356e-16
2.77347e-12
2.37152e-17
-2.20914e-16
2.77328e-12
-2.20503e-17
2.38722e-16
2.77348e-12
1.7769e-17
-2.09767e-16
2.77328e-12
-3.26973e-17
2.16863e-16
2.77351e-12
3.32578e-17
-2.09633e-16
2.77332e-12
-4.64946e-17
2.22078e-16
2.77351e-12
4.16936e-17
-1.76532e-16
2.77333e-12
-4.47209e-17
1.62953e-16
2.77349e-12
4.05347e-17
-1.62697e-16
2.77333e-12
-3.42228e-17
1.4966e-16
2.77347e-12
3.03533e-17
-1.57981e-16
2.77333e-12
-1.07401e-17
1.29399e-16
2.77346e-12
1.57725e-17
-1.27366e-16
2.77334e-12
-1.51529e-17
1.35838e-16
2.77346e-12
1.18077e-17
-1.36103e-16
2.77332e-12
-9.93029e-18
1.22308e-16
2.77346e-12
1.08954e-17
-1.37609e-16
2.77334e-12
-2.65873e-17
1.42648e-16
2.77346e-12
9.60911e-18
-1.16422e-16
2.77336e-12
-1.65822e-17
1.20416e-16
2.77347e-12
1.44809e-17
-9.49592e-17
2.77337e-12
-2.68517e-17
9.734e-17
2.77346e-12
1.51387e-17
-7.84136e-17
2.77338e-12
-3.26996e-17
8.17169e-17
2.77345e-12
2.03894e-17
-7.21245e-17
2.77338e-12
-2.20712e-17
5.66344e-17
2.77344e-12
1.79141e-17
-4.99311e-17
2.77339e-12
-1.28222e-17
5.85709e-17
2.77344e-12
1.0712e-17
-5.87549e-17
2.77339e-12
-8.79662e-18
5.1976e-17
2.77344e-12
5.00326e-18
-4.57064e-17
2.77339e-12
-6.86802e-18
4.8056e-17
2.77345e-12
-1.52124e-19
-4.91432e-17
-1.01762e-17
1.85267e-17
2.82626e-12
-3.31301e-12
6.69867e-12
2.51727e-12
-1.96597e-13
3.68577e-13
2.66447e-12
9.61037e-14
-1.75382e-13
2.59321e-12
-4.32315e-14
8.56633e-14
2.63834e-12
2.8211e-14
-5.41646e-14
2.61078e-12
-1.74298e-14
3.31369e-14
2.62717e-12
1.07891e-14
-1.97568e-14
2.61796e-12
-6.72599e-15
1.15998e-14
2.62251e-12
4.02821e-15
-6.17505e-15
2.62084e-12
-1.86717e-15
2.54077e-15
2.62127e-12
8.42559e-16
-8.15996e-16
2.62138e-12
-2.76654e-16
2.76966e-17
2.62105e-12
-7.8947e-18
2.01285e-16
2.6213e-12
4.03482e-17
-3.12225e-16
2.62103e-12
-4.32888e-17
2.56007e-16
2.62124e-12
4.2077e-17
-2.5826e-16
2.62101e-12
-2.57547e-17
2.07687e-16
2.62124e-12
3.96846e-17
-2.23601e-16
2.62105e-12
-4.66927e-17
2.38835e-16
2.62125e-12
3.54099e-17
-2.11668e-16
2.62104e-12
-5.0466e-17
2.18186e-16
2.62127e-12
4.91994e-17
-2.13764e-16
2.62108e-12
-6.9678e-17
2.2303e-16
2.62127e-12
5.58559e-17
-1.79961e-16
2.6211e-12
-5.98634e-17
1.65521e-16
2.62125e-12
5.86611e-17
-1.64097e-16
2.6211e-12
-4.54951e-17
1.52306e-16
2.62123e-12
4.60617e-17
-1.57436e-16
2.62109e-12
-1.9723e-17
1.30811e-16
2.62123e-12
2.23941e-17
-1.29342e-16
2.62111e-12
-2.55708e-17
1.36378e-16
2.62123e-12
2.24323e-17
-1.36841e-16
2.62108e-12
-1.398e-17
1.25045e-16
2.62123e-12
2.08313e-17
-1.3889e-16
2.62111e-12
-3.89077e-17
1.41624e-16
2.62122e-12
1.86277e-17
-1.17871e-16
2.62112e-12
-2.7903e-17
1.20943e-16
2.62123e-12
1.9278e-17
-9.75364e-17
2.62113e-12
-3.67651e-17
9.8085e-17
2.62122e-12
2.39699e-17
-8.04715e-17
2.62114e-12
-3.9383e-17
8.25663e-17
2.62121e-12
2.83843e-17
-7.35056e-17
2.62115e-12
-2.98813e-17
5.73288e-17
2.62121e-12
2.51061e-17
-5.07627e-17
2.62115e-12
-1.92541e-17
5.9983e-17
2.62121e-12
1.63687e-17
-6.00388e-17
2.62115e-12
-1.34317e-17
5.31243e-17
2.6212e-12
9.04143e-18
-4.68226e-17
2.62116e-12
-1.10613e-17
4.88817e-17
2.62121e-12
4.40303e-18
-5.04859e-17
-8.29345e-18
1.83047e-17
2.59943e-12
-4.1167e-12
6.70937e-12
2.26814e-12
-2.35824e-13
3.70553e-13
2.42265e-12
1.15218e-13
-1.7364e-13
2.34839e-12
-5.56539e-14
8.66929e-14
2.3955e-12
3.55206e-14
-5.44581e-14
2.3667e-12
-2.18887e-14
3.32752e-14
2.38387e-12
1.34517e-14
-1.98142e-14
2.37414e-12
-8.30149e-15
1.1574e-14
2.37903e-12
4.88961e-15
-6.12185e-15
2.37718e-12
-2.31641e-15
2.51727e-15
2.3777e-12
1.03693e-15
-8.00887e-16
2.37777e-12
-3.35938e-16
2.21331e-17
2.37746e-12
1.16909e-17
2.08416e-16
2.37771e-12
6.32701e-17
-3.12391e-16
2.37744e-12
-6.79621e-17
2.63142e-16
2.37765e-12
6.67009e-17
-2.58606e-16
2.37743e-12
-4.67546e-17
2.13556e-16
2.37765e-12
6.38755e-17
-2.30368e-16
2.37746e-12
-7.15005e-17
2.39628e-16
2.37766e-12
5.81136e-17
-2.15849e-16
2.37745e-12
-7.06321e-17
2.2099e-16
2.37768e-12
7.23989e-17
-2.21067e-16
2.37749e-12
-9.06478e-17
2.2415e-16
2.37768e-12
7.41863e-17
-1.85807e-16
2.3775e-12
-7.68052e-17
1.69814e-16
2.37766e-12
7.56015e-17
-1.65957e-16
2.3775e-12
-6.11771e-17
1.57447e-16
2.37764e-12
5.91712e-17
-1.56431e-16
2.37751e-12
-3.29041e-17
1.33872e-16
2.37764e-12
3.54327e-17
-1.34361e-16
2.37752e-12
-3.82382e-17
1.38365e-16
2.37764e-12
3.58458e-17
-1.39181e-16
2.3775e-12
-2.71579e-17
1.31514e-16
2.37764e-12
3.46202e-17
-1.41618e-16
2.37752e-12
-4.92231e-17
1.4046e-16
2.37763e-12
3.17846e-17
-1.21202e-16
2.37753e-12
-3.97607e-17
1.22143e-16
2.37764e-12
2.94606e-17
-1.02313e-16
2.37754e-12
-4.56512e-17
9.90378e-17
2.37763e-12
3.44139e-17
-8.33271e-17
2.37754e-12
-4.58792e-17
8.42591e-17
2.37762e-12
3.59785e-17
-7.49246e-17
2.37755e-12
-3.59879e-17
5.75573e-17
2.37761e-12
3.15193e-17
-5.15548e-17
2.37755e-12
-2.61088e-17
6.16946e-17
2.37761e-12
2.28651e-17
-6.16949e-17
2.37756e-12
-1.94457e-17
5.48829e-17
2.37761e-12
1.47317e-17
-4.86489e-17
2.37756e-12
-1.65823e-17
5.05565e-17
2.37762e-12
1.00836e-17
-5.20336e-17
-9.70799e-18
1.90481e-17
2.25793e-12
-4.47272e-12
6.60319e-12
1.90293e-12
-2.33082e-13
3.52297e-13
2.06775e-12
1.16844e-13
-1.66469e-13
1.98732e-12
-6.08309e-14
8.56257e-14
2.03812e-12
3.79867e-14
-5.33057e-14
2.00706e-12
-2.32501e-14
3.24386e-14
2.02564e-12
1.41394e-14
-1.92528e-14
2.01498e-12
-8.5213e-15
1.11356e-14
2.02047e-12
4.8654e-15
-5.82678e-15
2.01828e-12
-2.32115e-15
2.41316e-15
2.01897e-12
1.00732e-15
-7.53552e-16
2.01897e-12
-3.09125e-16
1.18355e-17
2.01869e-12
-6.46719e-18
2.14678e-16
2.01894e-12
9.02444e-17
-3.10654e-16
2.01868e-12
-1.02789e-16
2.69516e-16
2.01889e-12
1.00258e-16
-2.68258e-16
2.01867e-12
-8.6099e-17
2.29154e-16
2.01889e-12
9.57888e-17
-2.35995e-16
2.01869e-12
-9.93694e-17
2.44468e-16
2.0189e-12
9.04144e-17
-2.24929e-16
2.01869e-12
-9.85106e-17
2.29278e-16
2.01891e-12
9.95471e-17
-2.23908e-16
2.01872e-12
-1.08111e-16
2.24399e-16
2.01891e-12
9.41858e-17
-1.88944e-16
2.01873e-12
-9.34165e-17
1.71813e-16
2.01889e-12
9.00636e-17
-1.66557e-16
2.01873e-12
-7.78967e-17
1.59047e-16
2.01887e-12
7.48551e-17
-1.61399e-16
2.01874e-12
-5.60663e-17
1.42876e-16
2.01887e-12
5.61931e-17
-1.40173e-16
2.01875e-12
-5.75474e-17
1.44636e-16
2.01887e-12
5.55005e-17
-1.44818e-16
2.01873e-12
-5.06765e-17
1.37998e-16
2.01887e-12
5.63932e-17
-1.47681e-16
2.01875e-12
-6.36925e-17
1.45724e-16
2.01886e-12
5.02065e-17
-1.25608e-16
2.01876e-12
-5.32265e-17
1.24722e-16
2.01887e-12
4.50834e-17
-1.066e-16
2.01876e-12
-5.44992e-17
1.00278e-16
2.01886e-12
4.53123e-17
-8.42628e-17
2.01877e-12
-5.01556e-17
8.37805e-17
2.01885e-12
4.20695e-17
-7.56866e-17
2.01878e-12
-4.07752e-17
5.81567e-17
2.01884e-12
3.64813e-17
-5.12447e-17
2.01878e-12
-3.17384e-17
6.19018e-17
2.01884e-12
2.91121e-17
-6.18247e-17
2.01878e-12
-2.6013e-17
5.55972e-17
2.01883e-12
2.21882e-17
-5.05888e-17
2.01879e-12
-2.27826e-17
5.1528e-17
2.01884e-12
1.84958e-17
-5.54335e-17
-1.84299e-17
2.66743e-17
1.74676e-12
-3.80024e-12
6.08585e-12
1.3744e-12
-1.55874e-13
2.95198e-13
1.55383e-12
8.24309e-14
-1.45037e-13
1.46154e-12
-4.59024e-14
7.73709e-14
1.5191e-12
2.81853e-14
-4.77917e-14
1.48396e-12
-1.71339e-14
2.90358e-14
1.50507e-12
1.03078e-14
-1.72585e-14
1.49279e-12
-5.97206e-15
9.98452e-15
1.49934e-12
3.20788e-15
-5.25325e-15
1.49647e-12
-1.47715e-15
2.23812e-15
1.49754e-12
5.89947e-16
-7.29257e-16
1.49736e-12
-1.4807e-16
5.02211e-17
1.49717e-12
-6.89554e-17
1.74964e-16
1.49739e-12
9.17284e-17
-2.6622e-16
1.49714e-12
-1.15692e-16
2.36779e-16
1.49736e-12
1.00022e-16
-2.36301e-16
1.49714e-12
-1.04629e-16
2.04448e-16
1.49735e-12
1.03281e-16
-2.07352e-16
1.49716e-12
-9.31827e-17
2.13966e-16
1.49736e-12
9.75684e-17
-1.99364e-16
1.49715e-12
-9.96141e-17
2.02229e-16
1.49737e-12
1.0423e-16
-1.9685e-16
1.49717e-12
-9.11959e-17
1.95358e-16
1.49736e-12
8.95992e-17
-1.66492e-16
1.49718e-12
-8.42334e-17
1.49993e-16
1.49735e-12
7.646e-17
-1.44367e-16
1.49719e-12
-7.59101e-17
1.40644e-16
1.49733e-12
6.77e-17
-1.42092e-16
1.4972e-12
-6.51352e-17
1.27679e-16
1.49733e-12
6.37089e-17
-1.23953e-16
1.49721e-12
-5.81788e-17
1.26543e-16
1.49733e-12
5.60061e-17
-1.26397e-16
1.4972e-12
-6.40664e-17
1.21859e-16
1.49733e-12
6.41678e-17
-1.29533e-16
1.49721e-12
-5.9291e-17
1.2792e-16
1.49732e-12
5.49718e-17
-1.11172e-16
1.49721e-12
-4.91963e-17
1.08921e-16
1.49732e-12
5.06077e-17
-9.46733e-17
1.49722e-12
-4.67504e-17
8.59842e-17
1.49731e-12
4.22106e-17
-7.27594e-17
1.49722e-12
-4.1797e-17
7.34022e-17
1.4973e-12
3.62644e-17
-6.7001e-17
1.49723e-12
-3.33314e-17
4.98606e-17
1.49729e-12
3.01975e-17
-4.36035e-17
1.49723e-12
-2.79244e-17
5.4626e-17
1.49729e-12
2.73541e-17
-5.40122e-17
1.49724e-12
-2.51314e-17
4.86018e-17
1.49729e-12
2.29555e-17
-4.46079e-17
1.49724e-12
-2.17069e-17
4.51123e-17
1.4973e-12
2.11534e-17
-5.05737e-17
-2.40701e-17
1.71822e-17
9.04615e-13
3.80025e-12
5.92864e-13
1.55885e-13
7.57737e-13
-8.24451e-14
6.65917e-13
4.59197e-14
7.22281e-13
-2.81848e-14
6.87977e-13
1.71724e-14
7.08573e-13
-1.02847e-14
6.9656e-13
6.08946e-15
7.03068e-13
-3.36812e-15
7.00051e-13
1.57913e-15
7.01253e-13
-6.27967e-16
7.0096e-13
1.52178e-16
7.00861e-13
1.49651e-17
7.01049e-13
-1.04133e-16
7.00829e-13
9.91356e-17
7.0103e-13
-1.05489e-16
7.00832e-13
8.84222e-17
7.0103e-13
-9.2091e-17
7.00842e-13
9.87451e-17
7.01031e-13
-8.95246e-17
7.00837e-13
9.26043e-17
7.01037e-13
-8.9959e-17
7.00852e-13
9.64265e-17
7.01026e-13
-8.14134e-17
7.00861e-13
7.72103e-17
7.01016e-13
-7.62779e-17
7.0087e-13
6.63838e-17
7.01004e-13
-6.73596e-17
7.0088e-13
5.65787e-17
7.01e-13
-5.42748e-17
7.00885e-13
5.78548e-17
7.00998e-13
-5.84306e-17
7.00879e-13
5.09997e-17
7.01002e-13
-5.62411e-17
7.00886e-13
5.77339e-17
7.00992e-13
-4.94191e-17
7.00893e-13
5.16248e-17
7.00989e-13
-4.25902e-17
7.00894e-13
4.58462e-17
7.0098e-13
-4.03998e-17
7.009e-13
3.72999e-17
7.00972e-13
-3.46763e-17
7.00906e-13
3.00224e-17
7.00966e-13
-2.69612e-17
7.0091e-13
2.78778e-17
7.00964e-13
-2.66123e-17
7.00914e-13
2.39224e-17
7.0096e-13
-2.16574e-17
7.00916e-13
2.24151e-17
7.00961e-13
-2.19366e-17
1.5997e-17
1.74676e-12
6.08585e-12
4.47273e-12
1.3744e-12
2.95198e-13
2.33101e-13
1.55383e-12
-1.45037e-13
-1.16861e-13
1.46155e-12
7.73541e-14
6.08475e-14
1.51911e-12
-4.77908e-14
-3.80077e-14
1.48396e-12
2.90463e-14
2.32778e-14
1.50507e-12
-1.72644e-14
-1.41453e-14
1.49278e-12
9.98232e-15
8.64393e-15
1.49934e-12
-5.25608e-15
-5.02925e-15
1.49647e-12
2.25001e-15
2.48906e-15
1.49753e-12
-7.20858e-16
-1.09302e-15
1.49736e-12
3.95607e-17
3.50754e-16
1.49717e-12
1.8228e-16
-6.8791e-17
1.49739e-12
-2.72285e-16
-9.9495e-17
1.49714e-12
2.39283e-16
8.52682e-17
1.49736e-12
-2.39266e-16
-1.12487e-16
1.49714e-12
2.05009e-16
7.1438e-17
1.49735e-12
-2.08689e-16
-8.53654e-17
1.49716e-12
2.21706e-16
1.07349e-16
1.49736e-12
-2.03322e-16
-8.45384e-17
1.49715e-12
2.02255e-16
9.20938e-17
1.49737e-12
-1.94392e-16
-8.10547e-17
1.49717e-12
1.98106e-16
1.09474e-16
1.49736e-12
-1.64022e-16
-7.7773e-17
1.49718e-12
1.50781e-16
7.61102e-17
1.49735e-12
-1.50561e-16
-7.95123e-17
1.49719e-12
1.39568e-16
6.51347e-17
1.49733e-12
-1.45882e-16
-7.39512e-17
1.4972e-12
1.27814e-16
4.65995e-17
1.49733e-12
-1.23771e-16
-4.487e-17
1.49721e-12
1.30836e-16
5.37083e-17
1.49733e-12
-1.31447e-16
-5.38614e-17
1.4972e-12
1.22684e-16
3.72712e-17
1.49733e-12
-1.30885e-16
-4.79473e-17
1.49721e-12
1.31739e-16
6.2982e-17
1.49732e-12
-1.13575e-16
-4.46257e-17
1.49722e-12
1.10485e-16
5.46361e-17
1.49732e-12
-9.06642e-17
-3.3352e-17
1.49722e-12
8.77712e-17
4.67143e-17
1.49731e-12
-7.41325e-17
-3.54981e-17
1.49722e-12
7.1596e-17
4.44609e-17
1.4973e-12
-6.07771e-17
-3.73184e-17
1.49723e-12
5.04329e-17
3.2575e-17
1.49729e-12
-4.71998e-17
-2.90879e-17
1.49723e-12
4.98134e-17
2.92079e-17
1.49729e-12
-5.1642e-17
-2.65614e-17
1.49724e-12
4.73899e-17
2.32251e-17
1.49729e-12
-4.34231e-17
-1.92524e-17
1.49724e-12
4.40391e-17
2.25438e-17
1.4973e-12
-4.66707e-17
-1.32683e-17
1.20545e-17
1.87675e-17
3.86089e-12
8.40795e-12
8.40794e-12
3.42177e-12
5.1483e-13
5.14831e-13
3.59846e-12
-2.33422e-13
-2.33416e-13
3.52585e-12
1.13671e-13
1.13671e-13
3.57379e-12
-7.18122e-14
-7.18232e-14
3.54391e-12
4.40189e-14
4.39996e-14
3.5628e-12
-2.66887e-14
-2.67087e-14
3.55059e-12
1.64603e-14
1.64765e-14
3.55833e-12
-9.65522e-15
-9.67375e-15
3.55388e-12
4.90565e-15
4.85473e-15
3.55649e-12
-2.20226e-15
-2.19275e-15
3.55523e-12
7.39888e-16
7.5713e-16
3.55571e-12
-2.17907e-16
-1.90994e-16
3.55544e-12
-1.95621e-16
-1.94691e-16
3.55553e-12
1.49663e-16
1.57812e-16
3.55542e-12
-2.31693e-16
-2.33885e-16
3.55548e-12
1.3239e-16
1.34923e-16
3.55543e-12
-1.5697e-16
-1.62378e-16
3.55551e-12
2.27134e-16
2.22802e-16
3.55545e-12
-1.64075e-16
-1.63844e-16
3.55548e-12
1.71101e-16
1.74067e-16
3.55547e-12
-1.34515e-16
-1.42316e-16
3.5555e-12
2.0104e-16
1.97902e-16
3.55549e-12
-1.17674e-16
-1.1696e-16
3.55548e-12
1.18589e-16
1.0792e-16
3.55548e-12
-1.45228e-16
-1.19314e-16
3.55549e-12
1.03245e-16
1.07988e-16
3.55547e-12
-1.46156e-16
-1.45167e-16
3.5555e-12
8.71548e-17
8.87558e-17
3.55546e-12
-7.59361e-17
-8.14429e-17
3.55553e-12
1.02978e-16
1.00732e-16
3.55544e-12
-1.05391e-16
-9.78429e-17
3.5555e-12
5.73647e-17
6.32373e-17
3.55547e-12
-9.07617e-17
-9.18635e-17
3.5555e-12
1.26457e-16
1.27369e-16
3.55546e-12
-8.58137e-17
-8.52044e-17
3.5555e-12
1.05183e-16
1.04563e-16
3.55547e-12
-4.37659e-17
-5.00784e-17
3.55548e-12
7.42777e-17
6.0605e-17
3.55548e-12
-5.3908e-17
-3.05694e-17
3.55547e-12
6.26098e-17
6.16803e-17
3.55549e-12
-4.98343e-17
-5.43529e-17
3.55546e-12
4.60403e-17
3.10151e-17
3.55547e-12
-4.52476e-17
-1.91147e-17
3.55547e-12
4.02141e-17
4.2422e-17
3.55546e-12
-3.95488e-17
-3.98205e-17
3.55547e-12
3.53571e-17
3.27288e-17
3.55546e-12
-3.0009e-17
-2.79315e-17
3.55547e-12
3.68019e-17
3.47564e-17
3.55546e-12
-1.87697e-17
-1.9149e-17
-5.41248e-18
5.92351e-18
5.27538e-12
8.42666e-12
9.81419e-12
4.89692e-12
5.79967e-13
6.65756e-13
5.03125e-12
-2.49012e-13
-2.85274e-13
4.98957e-12
1.10197e-13
1.30787e-13
5.01979e-12
-7.15401e-14
-8.39139e-14
5.00065e-12
4.41124e-14
5.15539e-14
5.01289e-12