/*--------------------------------*- C++ -*----------------------------------*\
  =========                 |
  \\      /  F ield         | OpenFOAM: The Open Source CFD Toolbox
   \\    /   O peration     | Website:  https://openfoam.org
    \\  /    A nd           | Version:  13
     \\/     M anipulation  |
\*---------------------------------------------------------------------------*/
FoamFile
{
    format      ascii;
    class       volVectorField;
    location    "26";
    object      U;
}
// * * * * * * * * * * * * * * * * * * * * * * * * * * * * * * * * * * * * * //

dimensions      [0 1 -1 0 0 0 0];

internalField   nonuniform List<vector> 
9996
(
(0.0138351 0.00077128 0.000771279)
(0.0154484 2.98656e-05 2.98665e-05)
(0.0123138 -1.80175e-05 -1.80165e-05)
(0.0145665 1.06568e-05 1.06543e-05)
(0.0132375 -6.4669e-06 -6.47035e-06)
(0.0140451 3.91674e-06 3.91189e-06)
(0.0135471 -2.34213e-06 -2.34854e-06)
(0.0138564 1.37608e-06 1.37375e-06)
(0.0136639 -7.62132e-07 -7.62e-07)
(0.0137802 3.81626e-07 3.79349e-07)
(0.0137179 -1.61832e-07 -1.61868e-07)
(0.0137484 4.88704e-08 5.13284e-08)
(0.0137354 -4.60564e-09 -9.55405e-10)
(0.0137393 -2.01626e-08 -1.88811e-08)
(0.0137384 2.20777e-08 2.23333e-08)
(0.0137381 -2.52077e-08 -2.47664e-08)
(0.0137383 2.19229e-08 2.21823e-08)
(0.0137381 -2.14995e-08 -2.16618e-08)
(0.0137385 2.35398e-08 2.25989e-08)
(0.0137383 -2.16683e-08 -2.13146e-08)
(0.0137384 2.14976e-08 2.17158e-08)
(0.0137382 -1.99026e-08 -2.00449e-08)
(0.0137387 2.12026e-08 2.08426e-08)
(0.0137382 -1.79833e-08 -1.8232e-08)
(0.0137386 1.72342e-08 1.72081e-08)
(0.0137383 -1.7114e-08 -1.6508e-08)
(0.0137386 1.47918e-08 1.52896e-08)
(0.0137383 -1.58879e-08 -1.58235e-08)
(0.0137385 1.39571e-08 1.387e-08)
(0.0137384 -1.29857e-08 -1.33536e-08)
(0.0137385 1.40701e-08 1.35981e-08)
(0.0137385 -1.41279e-08 -1.34395e-08)
(0.0137384 1.23686e-08 1.29568e-08)
(0.0137383 -1.34062e-08 -1.31237e-08)
(0.0137387 1.37477e-08 1.38689e-08)
(0.0137383 -1.19465e-08 -1.18566e-08)
(0.0137386 1.18098e-08 1.15714e-08)
(0.0137383 -9.74949e-09 -1.00074e-08)
(0.0137386 1.01457e-08 9.97213e-09)
(0.0137382 -8.96488e-09 -8.40143e-09)
(0.0137386 7.82942e-09 8.81661e-09)
(0.0137382 -7.58139e-09 -7.65488e-09)
(0.0137385 6.57284e-09 6.62448e-09)
(0.0137383 -5.83868e-09 -5.97619e-09)
(0.0137384 5.90593e-09 5.8457e-09)
(0.0137384 -5.7079e-09 -5.69312e-09)
(0.0137384 5.28382e-09 5.34409e-09)
(0.0137384 -5.04686e-09 -5.00406e-09)
(0.0137384 4.99874e-09 5.09198e-09)
(0.0137384 -4.80014e-09 -3.95876e-09)
(0.0137384 5.10699e-09 6.30055e-09)
(0.0283447 0.00157765 0.00124686)
(0.0327396 7.373e-05 5.66558e-05)
(0.0265551 -3.73549e-05 -3.26314e-05)
(0.0309681 2.00525e-05 1.89097e-05)
(0.0283642 -1.24005e-05 -1.1411e-05)
(0.0299476 7.57779e-06 6.76064e-06)
(0.0289731 -4.55137e-06 -3.95373e-06)
(0.0295758 2.73233e-06 2.23079e-06)
(0.0292039 -1.53451e-06 -1.1867e-06)
(0.0294262 7.41296e-07 5.96806e-07)
(0.0293072 -3.06313e-07 -2.32907e-07)
(0.0293654 8.1259e-08 5.74834e-08)
(0.0293406 -7.95953e-09 1.37568e-08)
(0.0293483 -4.39523e-08 -6.00633e-08)
(0.0293463 3.85647e-08 6.02129e-08)
(0.0293458 -4.48509e-08 -7.78081e-08)
(0.0293463 3.39991e-08 6.59006e-08)
(0.0293457 -3.66743e-08 -5.76183e-08)
(0.0293465 4.32781e-08 6.96711e-08)
(0.029346 -3.68644e-08 -6.06023e-08)
(0.0293464 3.72559e-08 5.87571e-08)
(0.0293459 -3.47253e-08 -4.45893e-08)
(0.029347 4.06983e-08 5.26053e-08)
(0.0293461 -3.12059e-08 -4.02392e-08)
(0.0293468 3.05862e-08 3.91521e-08)
(0.0293462 -3.20787e-08 -4.14083e-08)
(0.0293466 2.55927e-08 3.35749e-08)
(0.0293463 -2.85885e-08 -4.71859e-08)
(0.0293464 2.20871e-08 4.08338e-08)
(0.0293464 -2.03605e-08 -3.72246e-08)
(0.0293465 2.3876e-08 4.39296e-08)
(0.0293464 -2.42608e-08 -4.36127e-08)
(0.0293464 1.83169e-08 3.57122e-08)
(0.0293461 -2.26973e-08 -3.78432e-08)
(0.0293469 2.44808e-08 4.3642e-08)
(0.029346 -1.99525e-08 -3.37395e-08)
(0.0293468 2.15525e-08 3.31004e-08)
(0.0293461 -1.51366e-08 -2.41751e-08)
(0.0293469 1.87196e-08 2.61591e-08)
(0.029346 -1.6257e-08 -1.90266e-08)
(0.0293468 1.41305e-08 1.77482e-08)
(0.0293461 -1.35005e-08 -1.74198e-08)
(0.0293466 1.23371e-08 1.4662e-08)
(0.0293463 -1.12709e-08 -1.19759e-08)
(0.0293464 1.08631e-08 1.22657e-08)
(0.0293464 -1.03814e-08 -1.24629e-08)
(0.0293464 9.23849e-09 1.22289e-08)
(0.0293464 -8.33516e-09 -1.34457e-08)
(0.0293463 8.69685e-09 1.30163e-08)
(0.0293465 -8.39439e-09 -1.45148e-08)
(0.0293466 4.88754e-09 1.96432e-08)
(0.0371806 0.00161648 0.00126789)
(0.043952 8.88762e-05 6.28895e-05)
(0.0360561 -4.36738e-05 -3.58351e-05)
(0.0416133 2.19236e-05 2.05495e-05)
(0.0383293 -1.38165e-05 -1.24144e-05)
(0.0403282 8.52275e-06 7.34136e-06)
(0.0390977 -5.16924e-06 -4.27365e-06)
(0.0398576 3.22074e-06 2.41084e-06)
(0.039392 -1.89194e-06 -1.28342e-06)
(0.0396664 9.54185e-07 6.5371e-07)
(0.0395219 -4.22132e-07 -2.5876e-07)
(0.0395912 1.30627e-07 6.4776e-08)
(0.0395621 -4.93877e-08 7.77232e-09)
(0.0395706 -3.8273e-08 -6.44541e-08)
(0.0395686 2.381e-08 6.30638e-08)
(0.0395678 -3.85602e-08 -8.19328e-08)
(0.0395684 1.84568e-08 6.94411e-08)
(0.0395675 -2.51149e-08 -6.21895e-08)
(0.0395688 3.93016e-08 7.39373e-08)
(0.039568 -2.73413e-08 -6.41116e-08)
(0.0395687 2.84515e-08 6.2051e-08)
(0.0395679 -2.4006e-08 -4.77438e-08)
(0.0395694 3.90008e-08 5.65547e-08)
(0.0395682 -2.34559e-08 -4.36249e-08)
(0.0395693 2.49911e-08 4.26435e-08)
(0.0395685 -2.98172e-08 -4.47834e-08)
(0.0395689 1.83957e-08 3.6099e-08)
(0.0395686 -2.50964e-08 -4.88644e-08)
(0.0395686 1.3365e-08 4.28287e-08)
(0.0395686 -1.0657e-08 -3.98469e-08)
(0.0395687 1.78819e-08 4.69802e-08)
(0.0395686 -1.87654e-08 -4.69733e-08)
(0.0395686 6.44423e-09 3.7923e-08)
(0.0395681 -1.50941e-08 -4.01244e-08)
(0.0395693 2.02985e-08 4.52244e-08)
(0.039568 -1.36836e-08 -3.59246e-08)
(0.0395692 1.88083e-08 3.57119e-08)
(0.0395682 -7.65415e-09 -2.60708e-08)
(0.0395694 1.67168e-08 2.84088e-08)
(0.0395682 -1.42307e-08 -2.16307e-08)
(0.0395692 1.17794e-08 1.88964e-08)
(0.0395683 -1.23062e-08 -1.84627e-08)
(0.039569 1.1926e-08 1.63836e-08)
(0.0395686 -1.11028e-08 -1.38529e-08)
(0.0395687 1.00672e-08 1.35064e-08)
(0.0395687 -8.87268e-09 -1.33927e-08)
(0.0395687 7.37087e-09 1.33273e-08)
(0.0395688 -6.10194e-09 -1.46477e-08)
(0.0395686 7.07994e-09 1.44966e-08)
(0.0395689 -6.18115e-09 -1.56678e-08)
(0.0395689 2.42962e-10 2.04522e-08)
(0.0429073 0.00136161 0.00124)
(0.0516171 8.05762e-05 6.30656e-05)
(0.0427041 -3.90885e-05 -3.62259e-05)
(0.0488773 1.81724e-05 2.06154e-05)
(0.0452193 -1.17126e-05 -1.24975e-05)
(0.0474477 7.27367e-06 7.40724e-06)
(0.0460763 -4.4312e-06 -4.32116e-06)
(0.0469217 2.83092e-06 2.4436e-06)
(0.046407 -1.70167e-06 -1.30289e-06)
(0.0467067 8.76983e-07 6.61457e-07)
(0.0465506 -3.98223e-07 -2.63392e-07)
(0.0466245 1.28132e-07 6.73833e-08)
(0.0465938 -6.38582e-08 5.17349e-09)
(0.0466026 -3.19199e-08 -6.1466e-08)
(0.0466004 1.25038e-08 6.00376e-08)
(0.0465995 -3.21921e-08 -7.7311e-08)
(0.0466002 8.1282e-09 6.61156e-08)
(0.0465991 -1.46004e-08 -5.99933e-08)
(0.0466007 3.36317e-08 6.95116e-08)
(0.0465997 -1.896e-08 -6.09925e-08)
(0.0466006 1.96344e-08 5.96994e-08)
(0.0465996 -1.28684e-08 -4.7013e-08)
(0.0466015 3.15902e-08 5.47886e-08)
(0.0466001 -1.31089e-08 -4.32005e-08)
(0.0466013 1.59384e-08 4.20533e-08)
(0.0466004 -2.31776e-08 -4.33255e-08)
(0.0466008 9.70755e-09 3.54964e-08)
(0.0466005 -2.08576e-08 -4.58994e-08)
(0.0466003 7.22753e-09 4.06995e-08)
(0.0466005 -3.24281e-09 -3.81871e-08)
(0.0466006 1.2694e-08 4.42367e-08)
(0.0466005 -1.35332e-08 -4.42902e-08)
(0.0466005 -1.76333e-09 3.62888e-08)
(0.0465998 -9.25411e-09 -3.83791e-08)
(0.0466013 1.64891e-08 4.2356e-08)
(0.0465998 -8.52993e-09 -3.41215e-08)
(0.0466013 1.47296e-08 3.40983e-08)
(0.0466 -1.15972e-09 -2.55684e-08)
(0.0466015 1.24947e-08 2.75005e-08)
(0.0466 -9.67246e-09 -2.15831e-08)
(0.0466013 7.11475e-09 1.88562e-08)
(0.0466002 -9.19048e-09 -1.80736e-08)
(0.046601 9.04604e-09 1.62192e-08)
(0.0466005 -8.2372e-09 -1.39362e-08)
(0.0466006 7.3083e-09 1.34901e-08)
(0.0466007 -6.1675e-09 -1.32051e-08)
(0.0466006 4.61019e-09 1.31572e-08)
(0.0466008 -3.71301e-09 -1.4132e-08)
(0.0466005 4.69722e-09 1.41658e-08)
(0.0466009 -4.60891e-09 -1.44307e-08)
(0.0466008 -3.05445e-09 1.98405e-08)
(0.0466175 0.00101617 0.00121672)
(0.0568009 6.13658e-05 6.14634e-05)
(0.0472839 -2.9983e-05 -3.61197e-05)
(0.0537772 1.30085e-05 2.04549e-05)
(0.0499163 -8.56294e-06 -1.2424e-05)
(0.0522697 5.34145e-06 7.37009e-06)
(0.0508223 -3.24267e-06 -4.3075e-06)
(0.0517131 2.10706e-06 2.4403e-06)
(0.0511734 -1.2766e-06 -1.30412e-06)
(0.0514849 6.72711e-07 6.6101e-07)
(0.0513238 -3.08186e-07 -2.62801e-07)
(0.0513994 9.84817e-08 6.76848e-08)
(0.0513682 -6.2929e-08 5.05299e-09)
(0.0513769 -2.7266e-08 -6.05896e-08)
(0.0513748 6.90051e-09 5.88498e-08)
(0.0513738 -2.69002e-08 -7.681e-08)
(0.0513746 4.08736e-09 6.55173e-08)
(0.0513732 -9.16501e-09 -5.86858e-08)
(0.0513751 2.82838e-08 6.8379e-08)
(0.0513739 -1.41142e-08 -6.01083e-08)
(0.0513751 1.34863e-08 5.9359e-08)
(0.0513738 -6.40845e-09 -4.61159e-08)
(0.051376 2.36646e-08 5.41703e-08)
(0.0513745 -5.94311e-09 -4.25427e-08)
(0.0513757 8.9411e-09 4.13979e-08)
(0.0513748 -1.6742e-08 -4.26403e-08)
(0.0513751 3.8682e-09 3.48099e-08)
(0.0513749 -1.62147e-08 -4.57938e-08)
(0.0513746 4.4248e-09 4.04199e-08)
(0.0513748 2.259e-11 -3.73767e-08)
(0.051375 9.60903e-09 4.34241e-08)
(0.0513748 -1.04452e-08 -4.33383e-08)
(0.0513749 -4.60353e-09 3.53153e-08)
(0.051374 -6.47786e-09 -3.79423e-08)
(0.0513757 1.27085e-08 4.22432e-08)
(0.051374 -5.95047e-09 -3.33862e-08)
(0.0513757 1.13872e-08 3.35005e-08)
(0.0513743 1.83212e-09 -2.50749e-08)
(0.051376 8.66614e-09 2.71197e-08)
(0.0513743 -6.56151e-09 -2.10758e-08)
(0.0513758 2.7393e-09 1.87456e-08)
(0.0513746 -6.13133e-09 -1.80299e-08)
(0.0513754 6.13076e-09 1.60006e-08)
(0.051375 -5.5736e-09 -1.35614e-08)
(0.051375 4.91891e-09 1.32961e-08)
(0.0513752 -4.08778e-09 -1.29516e-08)
(0.051375 2.75224e-09 1.28868e-08)
(0.0513752 -2.41012e-09 -1.37611e-08)
(0.0513749 3.15195e-09 1.37948e-08)
(0.0513754 -4.18286e-09 -1.40126e-08)
(0.0513752 -4.61171e-09 1.99781e-08)
(0.0488581 0.000625509 0.00120035)
(0.0600324 3.7749e-05 5.96664e-05)
(0.050178 -1.8744e-05 -3.59669e-05)
(0.0568249 7.74054e-06 2.03162e-05)
(0.0528603 -5.17488e-06 -1.23479e-05)
(0.0552778 3.24689e-06 7.32382e-06)
(0.0537919 -1.94863e-06 -4.28458e-06)
(0.0547052 1.29069e-06 2.42928e-06)
(0.0541539 -7.8178e-07 -1.30023e-06)
(0.0544702 4.3132e-07 6.58333e-07)
(0.0543073 -1.99186e-07 -2.61349e-07)
(0.0543833 6.2439e-08 6.75773e-08)
(0.0543521 -5.63796e-08 5.53308e-09)
(0.0543607 -2.10063e-08 -6.01233e-08)
(0.0543586 2.79596e-09 5.82807e-08)
(0.0543576 -1.98258e-08 -7.67298e-08)
(0.0543584 1.56787e-09 6.55833e-08)
(0.0543569 -5.15965e-09 -5.80684e-08)
(0.054359 2.08764e-08 6.77176e-08)
(0.0543576 -9.56856e-09 -5.9718e-08)
(0.0543589 7.60946e-09 5.9417e-08)
(0.0543576 -2.07036e-09 -4.55886e-08)
(0.0543598 1.47784e-08 5.37659e-08)
(0.0543583 -5.60376e-10 -4.2149e-08)
(0.0543596 2.9119e-09 4.09625e-08)
(0.0543587 -9.79761e-09 -4.21477e-08)
(0.0543589 -4.22698e-10 3.44146e-08)
(0.0543587 -1.00654e-08 -4.59035e-08)
(0.0543584 2.28865e-09 4.04737e-08)
(0.0543586 1.86628e-09 -3.70337e-08)
(0.0543588 6.16708e-09 4.30283e-08)
(0.0543586 -7.11106e-09 -4.27983e-08)
(0.0543587 -5.24602e-09 3.47682e-08)
(0.0543577 -4.21625e-09 -3.78002e-08)
(0.0543595 7.59094e-09 4.24048e-08)
(0.0543578 -3.81954e-09 -3.30379e-08)
(0.0543596 7.64144e-09 3.32062e-08)
(0.054358 3.1436e-09 -2.4802e-08)
(0.0543599 4.55714e-09 2.69119e-08)
(0.0543581 -4.05432e-09 -2.06828e-08)
(0.0543597 -1.14703e-09 1.86838e-08)
(0.0543584 -3.0188e-09 -1.79792e-08)
(0.0543593 3.09552e-09 1.59404e-08)
(0.0543588 -3.05873e-09 -1.33709e-08)
(0.0543589 2.80314e-09 1.31431e-08)
(0.0543591 -2.30895e-09 -1.27572e-08)
(0.0543589 1.35036e-09 1.26939e-08)
(0.0543591 -1.43017e-09 -1.35146e-08)
(0.0543588 1.88233e-09 1.3594e-08)
(0.0543593 -3.52924e-09 -1.37452e-08)
(0.0543591 -5.51254e-09 2.02098e-08)
(0.0499153 0.000210959 0.00119202)
(0.0615875 1.26781e-05 5.85543e-05)
(0.0515825 -6.37801e-06 -3.58773e-05)
(0.0582895 2.57584e-06 2.02456e-05)
(0.0542816 -1.72396e-06 -1.23067e-05)
(0.056726 1.10349e-06 7.2969e-06)
(0.0552241 -6.29024e-07 -4.27075e-06)
(0.0561466 4.47331e-07 2.42137e-06)
(0.0555908 -2.68473e-07 -1.29654e-06)
(0.0559087 1.82451e-07 6.55613e-07)
(0.0557453 -8.62278e-08 -2.60031e-07)
(0.0558214 2.61204e-08 6.74804e-08)
(0.0557901 -4.70553e-08 6.01433e-09)
(0.0557987 -1.36412e-08 -5.95495e-08)
(0.0557966 -6.45998e-10 5.78189e-08)
(0.0557955 -1.27401e-08 -7.62917e-08)
(0.0557963 8.68586e-11 6.56719e-08)
(0.0557949 -1.47133e-09 -5.77021e-08)
(0.055797 1.29992e-08 6.68274e-08)
(0.0557956 -5.37124e-09 -5.93173e-08)
(0.055797 2.19167e-09 5.94596e-08)
(0.0557955 1.75024e-09 -4.53714e-08)
(0.0557978 5.67868e-09 5.3353e-08)
(0.0557963 4.08506e-09 -4.20237e-08)
(0.0557976 -2.71789e-09 4.07322e-08)
(0.0557967 -2.74269e-09 -4.16889e-08)
(0.0557969 -4.05147e-09 3.42225e-08)
(0.0557967 -4.01207e-09 -4.57197e-08)
(0.0557964 7.49294e-10 4.04815e-08)
(0.0557966 3.03421e-09 -3.68317e-08)
(0.0557968 2.83842e-09 4.2596e-08)
(0.0557966 -3.87846e-09 -4.22478e-08)
(0.0557967 -4.87557e-09 3.44083e-08)
(0.0557957 -2.19599e-09 -3.7684e-08)
(0.0557975 2.5615e-09 4.23032e-08)
(0.0557957 -1.90164e-09 -3.27378e-08)
(0.0557976 3.80414e-09 3.293e-08)
(0.055796 3.78019e-09 -2.47097e-08)
(0.0557979 3.9314e-10 2.67321e-08)
(0.0557961 -1.51989e-09 -2.04565e-08)
(0.0557977 -4.60404e-09 1.86748e-08)
(0.0557964 -2.74669e-11 -1.78908e-08)
(0.0557973 -3.51598e-11 1.59521e-08)
(0.0557969 -4.17423e-10 -1.33297e-08)
(0.0557969 7.45706e-10 1.3068e-08)
(0.0557971 -6.03059e-10 -1.26268e-08)
(0.0557968 9.49444e-11 1.25789e-08)
(0.0557971 -5.78842e-10 -1.33296e-08)
(0.0557968 6.54933e-10 1.34869e-08)
(0.0557973 -2.77722e-09 -1.34455e-08)
(0.0557971 -5.61632e-09 2.0331e-08)
(0.0499152 -0.000210947 0.00119202)
(0.0615876 -1.26749e-05 5.85539e-05)
(0.0515824 6.35216e-06 -3.58769e-05)
(0.0582895 -2.53772e-06 2.02452e-05)
(0.0542816 1.74116e-06 -1.23073e-05)
(0.056726 -1.05446e-06 7.29721e-06)
(0.0552241 6.95103e-07 -4.27262e-06)
(0.0561465 -4.02463e-07 2.42154e-06)
(0.0555908 2.47253e-07 -1.29639e-06)
(0.0559086 -6.79187e-08 6.54268e-07)
(0.0557453 2.77912e-08 -2.59153e-07)
(0.0558214 -1.01222e-08 6.74741e-08)
(0.0557901 -3.55711e-08 6.40008e-09)
(0.0557987 -5.75695e-09 -5.89131e-08)
(0.0557966 -3.84256e-09 5.74266e-08)
(0.0557955 -5.70611e-09 -7.5737e-08)
(0.0557963 -1.0792e-09 6.56901e-08)
(0.0557949 2.17821e-09 -5.73797e-08)
(0.055797 5.03008e-09 6.59099e-08)
(0.0557956 -1.24406e-09 -5.89404e-08)
(0.055797 -3.01569e-09 5.94795e-08)
(0.0557955 5.52979e-09 -4.53362e-08)
(0.0557978 -3.32984e-09 5.30232e-08)
(0.0557963 8.38253e-09 -4.20858e-08)
(0.0557976 -8.09659e-09 4.06677e-08)
(0.0557967 4.22238e-09 -4.13302e-08)
(0.0557969 -7.3206e-09 3.41518e-08)
(0.0557967 1.77302e-09 -4.54428e-08)
(0.0557963 -6.03268e-10 4.04493e-08)
(0.0557966 3.87319e-09 -3.6652e-08)
(0.0557968 -3.06989e-10 4.21716e-08)
(0.0557966 -8.06466e-10 -4.17261e-08)
(0.0557967 -4.05948e-09 3.41551e-08)
(0.0557957 -1.57918e-10 -3.75854e-08)
(0.0557975 -2.18175e-09 4.2076e-08)
(0.0557957 -4.68691e-11 -3.24409e-08)
(0.0557976 -6.00204e-12 3.26511e-08)
(0.055796 4.17136e-09 -2.47285e-08)
(0.0557979 -3.68503e-09 2.65846e-08)
(0.0557961 1.14193e-09 -2.03462e-08)
(0.0557977 -7.6738e-09 1.8724e-08)
(0.0557964 2.87813e-09 -1.78363e-08)
(0.0557973 -3.1889e-09 1.59453e-08)
(0.0557968 2.31044e-09 -1.33072e-08)
(0.0557969 -1.32993e-09 1.30643e-08)
(0.0557971 1.10273e-09 -1.25611e-08)
(0.0557968 -1.12746e-09 1.25225e-08)
(0.0557971 2.42666e-10 -1.31876e-08)
(0.0557968 -5.54882e-10 1.34057e-08)
(0.0557973 -1.92088e-09 -1.31566e-08)
(0.0557971 -5.02644e-09 2.0363e-08)
(0.048858 -0.000625495 0.00120035)
(0.0600325 -3.7744e-05 5.96658e-05)
(0.0501778 1.87187e-05 -3.59658e-05)
(0.056825 -7.70431e-06 2.03152e-05)
(0.0528602 5.19008e-06 -1.23495e-05)
(0.0552779 -3.20105e-06 7.32476e-06)
(0.053792 2.01016e-06 -4.28989e-06)
(0.0547051 -1.24491e-06 2.42978e-06)
(0.0541541 7.5605e-07 -1.29976e-06)
(0.0544701 -3.19339e-07 6.54377e-07)
(0.0543073 1.42735e-07 -2.58709e-07)
(0.0543833 -4.71297e-08 6.74353e-08)
(0.0543521 -2.23041e-08 6.6481e-09)
(0.0543607 2.43273e-09 -5.82703e-08)
(0.0543586 -7.44513e-09 5.71513e-08)
(0.0543576 2.28406e-09 -7.50419e-08)
(0.0543584 -3.16444e-09 6.55684e-08)
(0.0543569 6.11352e-09 -5.71462e-08)
(0.054359 -3.51579e-09 6.50528e-08)
(0.0543576 3.56001e-09 -5.85961e-08)
(0.0543589 -8.68834e-09 5.94179e-08)
(0.0543576 9.4814e-09 -4.54993e-08)
(0.0543598 -1.22718e-08 5.28074e-08)
(0.0543583 1.25654e-08 -4.23296e-08)
(0.0543596 -1.32963e-08 4.07788e-08)
(0.0543586 1.11045e-08 -4.11211e-08)
(0.0543589 -1.04474e-08 3.42168e-08)
(0.0543587 7.88485e-09 -4.50548e-08)
(0.0543584 -2.54591e-09 4.0337e-08)
(0.0543586 4.84089e-09 -3.65139e-08)
(0.0543588 -3.64468e-09 4.17992e-08)
(0.0543586 2.45022e-09 -4.12968e-08)
(0.0543587 -3.39033e-09 3.4044e-08)
(0.0543577 2.36847e-09 -3.74842e-08)
(0.0543595 -7.15188e-09 4.16979e-08)
(0.0543577 2.09441e-09 -3.21808e-08)
(0.0543596 -3.93547e-09 3.24016e-08)
(0.054358 4.63201e-09 -2.48568e-08)
(0.0543599 -7.66983e-09 2.6486e-08)
(0.0543581 3.87904e-09 -2.03741e-08)
(0.0543597 -1.03972e-08 1.88105e-08)
(0.0543584 5.79448e-09 -1.78207e-08)
(0.0543593 -6.34451e-09 1.59118e-08)
(0.0543588 5.02614e-09 -1.32969e-08)
(0.0543589 -3.44031e-09 1.31283e-08)
(0.0543591 2.85019e-09 -1.25654e-08)
(0.0543588 -2.3935e-09 1.25272e-08)
(0.0543591 1.17611e-09 -1.30998e-08)
(0.0543587 -1.77205e-09 1.33597e-08)
(0.0543593 -7.79264e-10 -1.29237e-08)
(0.054359 -4.12297e-09 2.03443e-08)
(0.0466174 -0.00101616 0.00121672)
(0.056801 -6.13589e-05 6.14631e-05)
(0.0472836 2.996e-05 -3.61183e-05)
(0.0537774 -1.29776e-05 2.04532e-05)
(0.049916 8.57514e-06 -1.24264e-05)
(0.0522698 -5.30177e-06 7.37154e-06)
(0.0508224 3.29497e-06 -4.31566e-06)
(0.0517129 -2.05967e-06 2.44111e-06)
(0.0511737 1.24246e-06 -1.30341e-06)
(0.0514847 -5.6583e-07 6.54435e-07)
(0.0513239 2.5579e-07 -2.58296e-07)
(0.0513993 -8.44619e-08 6.71812e-08)
(0.0513682 -8.09255e-09 6.99434e-09)
(0.0513769 1.03368e-08 -5.77214e-08)
(0.0513748 -1.19741e-08 5.72164e-08)
(0.0513738 1.0758e-08 -7.40536e-08)
(0.0513746 -6.44809e-09 6.53187e-08)
(0.0513732 1.07504e-08 -5.7345e-08)
(0.0513751 -1.22699e-08 6.43185e-08)
(0.0513739 9.14971e-09 -5.83238e-08)
(0.0513751 -1.47201e-08 5.9219e-08)
(0.0513738 1.41724e-08 -4.60437e-08)
(0.0513759 -2.08403e-08 5.27015e-08)
(0.0513744 1.70473e-08 -4.28443e-08)
(0.0513757 -1.84577e-08 4.11386e-08)
(0.0513748 1.77142e-08 -4.10921e-08)
(0.0513751 -1.38899e-08 3.45657e-08)
(0.0513749 1.38602e-08 -4.43989e-08)
(0.0513746 -5.18028e-09 4.00891e-08)
(0.0513748 6.37443e-09 -3.66177e-08)
(0.051375 -7.09615e-09 4.15493e-08)
(0.0513748 5.88951e-09 -4.10614e-08)
(0.0513749 -3.62322e-09 3.4274e-08)
(0.051374 5.41044e-09 -3.73607e-08)
(0.0513757 -1.18858e-08 4.10646e-08)
(0.051374 4.7418e-09 -3.20946e-08)
(0.0513757 -7.89347e-09 3.2266e-08)
(0.0513743 5.6198e-09 -2.51803e-08)
(0.051376 -1.13617e-08 2.64384e-08)
(0.0513743 6.77094e-09 -2.05633e-08)
(0.0513758 -1.28534e-08 1.89532e-08)
(0.0513745 8.68248e-09 -1.78508e-08)
(0.0513754 -9.32644e-09 1.5822e-08)
(0.051375 7.6591e-09 -1.33021e-08)
(0.051375 -5.64632e-09 1.32676e-08)
(0.0513752 4.73095e-09 -1.26449e-08)
(0.051375 -3.8385e-09 1.26119e-08)
(0.0513752 2.35914e-09 -1.30995e-08)
(0.0513749 -3.08417e-09 1.34359e-08)
(0.0513754 6.40575e-10 -1.27739e-08)
(0.0513752 -3.16416e-09 2.03384e-08)
(0.0429072 -0.00136161 0.00123999)
(0.0516172 -8.05692e-05 6.30651e-05)
(0.0427038 3.90703e-05 -3.62238e-05)
(0.0488776 -1.81496e-05 2.06123e-05)
(0.0452189 1.17211e-05 -1.24996e-05)
(0.0474478 -7.24047e-06 7.40902e-06)
(0.0460765 4.46868e-06 -4.33165e-06)
(0.0469215 -2.78063e-06 2.44433e-06)
(0.0464073 1.65633e-06 -1.30161e-06)
(0.0467065 -7.784e-07 6.52319e-07)
(0.0465507 3.51246e-07 -2.56961e-07)
(0.0466244 -1.15186e-07 6.62664e-08)
(0.0465938 3.22238e-09 8.08955e-09)
(0.0466025 1.82783e-08 -5.79525e-08)
(0.0466004 -1.90612e-08 5.82044e-08)
(0.0465995 1.88507e-08 -7.42436e-08)
(0.0466002 -1.16065e-08 6.6261e-08)
(0.0465991 1.78163e-08 -5.84436e-08)
(0.0466007 -2.09204e-08 6.46062e-08)
(0.0465997 1.60042e-08 -5.89753e-08)
(0.0466006 -2.11051e-08 5.98163e-08)
(0.0465996 2.13331e-08 -4.69908e-08)
(0.0466015 -2.89074e-08 5.30057e-08)
(0.0466001 2.30163e-08 -4.36024e-08)
(0.0466012 -2.43686e-08 4.17394e-08)
(0.0466004 2.41627e-08 -4.14197e-08)
(0.0466007 -1.88759e-08 3.52126e-08)
(0.0466005 1.8695e-08 -4.44243e-08)
(0.0466003 -8.6867e-09 4.05496e-08)
(0.0466005 9.68647e-09 -3.73245e-08)
(0.0466006 -1.09223e-08 4.19746e-08)
(0.0466005 9.95531e-09 -4.15071e-08)
(0.0466005 -6.48827e-09 3.50236e-08)
(0.0465998 9.32882e-09 -3.78391e-08)
(0.0466012 -1.55302e-08 4.11394e-08)
(0.0465997 8.57739e-09 -3.25284e-08)
(0.0466012 -1.19775e-08 3.25771e-08)
(0.0466 8.23402e-09 -2.57299e-08)
(0.0466014 -1.47258e-08 2.66112e-08)
(0.0466 1.03477e-08 -2.08248e-08)
(0.0466013 -1.53363e-08 1.91212e-08)
(0.0466001 1.15637e-08 -1.79637e-08)
(0.0466009 -1.18519e-08 1.58041e-08)
(0.0466005 1.01939e-08 -1.33173e-08)
(0.0466006 -8.1528e-09 1.34212e-08)
(0.0466007 7.00241e-09 -1.27597e-08)
(0.0466006 -5.80079e-09 1.2745e-08)
(0.0466008 4.08783e-09 -1.32156e-08)
(0.0466005 -4.85121e-09 1.36489e-08)
(0.0466009 2.39356e-09 -1.29093e-08)
(0.0466008 -2.5538e-09 2.04597e-08)
(0.0371804 -0.00161647 0.00126788)
(0.0439521 -8.88706e-05 6.28874e-05)
(0.0360557 4.36611e-05 -3.58318e-05)
(0.0416136 -2.19074e-05 2.05446e-05)
(0.0383288 1.38218e-05 -1.24158e-05)
(0.0403284 -8.49277e-06 7.34533e-06)
(0.0390979 5.19181e-06 -4.28826e-06)
(0.0398574 -3.16655e-06 2.41296e-06)
(0.0393924 1.83494e-06 -1.28254e-06)
(0.039666 -8.70667e-07 6.43995e-07)
(0.039522 3.82926e-07 -2.52513e-07)
(0.0395911 -1.2014e-07 6.43818e-08)
(0.0395621 9.28645e-10 1.04077e-08)
(0.0395706 2.90926e-08 -5.93508e-08)
(0.0395685 -3.20414e-08 5.96849e-08)
(0.0395678 3.07144e-08 -7.80725e-08)
(0.0395684 -2.42715e-08 6.9961e-08)
(0.0395675 2.98858e-08 -5.93095e-08)
(0.0395688 -3.17558e-08 6.68413e-08)
(0.039568 2.75457e-08 -6.13877e-08)
(0.0395687 -3.13071e-08 6.25372e-08)
(0.0395679 3.2444e-08 -4.71369e-08)
(0.0395694 -3.72477e-08 5.38962e-08)
(0.0395682 3.1638e-08 -4.37828e-08)
(0.0395692 -3.19374e-08 4.18849e-08)
(0.0395685 3.103e-08 -4.19573e-08)
(0.0395688 -2.61688e-08 3.51695e-08)
(0.0395685 2.46777e-08 -4.70429e-08)
(0.0395685 -1.62817e-08 4.29479e-08)
(0.0395686 1.70233e-08 -3.8139e-08)
(0.0395687 -1.76623e-08 4.35435e-08)
(0.0395686 1.68847e-08 -4.28465e-08)
(0.0395686 -1.45364e-08 3.55398e-08)
(0.0395681 1.68468e-08 -3.96106e-08)
(0.0395693 -2.06805e-08 4.37497e-08)
(0.039568 1.52813e-08 -3.33547e-08)
(0.0395692 -1.73238e-08 3.34772e-08)
(0.0395682 1.39765e-08 -2.59893e-08)
(0.0395693 -1.86871e-08 2.71587e-08)
(0.0395681 1.50531e-08 -2.06757e-08)
(0.0395692 -1.80255e-08 1.89712e-08)
(0.0395683 1.46411e-08 -1.80644e-08)
(0.0395689 -1.43383e-08 1.62208e-08)
(0.0395685 1.28128e-08 -1.33379e-08)
(0.0395686 -1.09338e-08 1.33213e-08)
(0.0395687 9.83414e-09 -1.27169e-08)
(0.0395686 -8.58792e-09 1.26952e-08)
(0.0395687 6.93233e-09 -1.33331e-08)
(0.0395685 -7.40405e-09 1.35913e-08)
(0.0395689 5.34499e-09 -1.35772e-08)
(0.0395688 -4.7317e-09 2.1528e-08)
(0.0283446 -0.00157765 0.00124685)
(0.0327397 -7.37256e-05 5.66512e-05)
(0.0265548 3.73476e-05 -3.26284e-05)
(0.0309684 -2.00436e-05 1.89092e-05)
(0.0283638 1.24029e-05 -1.14091e-05)
(0.0299478 -7.55899e-06 6.7754e-06)
(0.0289733 4.56509e-06 -3.96531e-06)
(0.0295756 -2.68869e-06 2.24492e-06)
(0.0292043 1.4818e-06 -1.19764e-06)
(0.0294259 -6.89932e-07 5.93327e-07)
(0.0293074 2.8432e-07 -2.31366e-07)
(0.0293653 -7.67956e-08 5.65551e-08)
(0.0293406 -2.02363e-08 1.11273e-08)
(0.0293483 3.73496e-08 -5.4099e-08)
(0.0293463 -4.44166e-08 5.45485e-08)
(0.0293458 4.06204e-08 -6.97992e-08)
(0.0293463 -3.94357e-08 6.25933e-08)
(0.0293457 4.01313e-08 -5.34172e-08)
(0.0293465 -3.85052e-08 6.00912e-08)
(0.029346 3.81132e-08 -5.54586e-08)
(0.0293464 -3.98286e-08 5.61725e-08)
(0.0293459 4.05912e-08 -4.331e-08)
(0.0293469 -3.8955e-08 4.87139e-08)
(0.029346 3.62059e-08 -3.97918e-08)
(0.0293468 -3.48424e-08 3.79088e-08)
(0.0293462 3.2526e-08 -3.81648e-08)
(0.0293466 -3.02942e-08 3.21571e-08)
(0.0293463 2.84195e-08 -4.2318e-08)
(0.0293464 -2.48941e-08 3.87252e-08)
(0.0293464 2.43656e-08 -3.41559e-08)
(0.0293465 -2.35308e-08 3.88049e-08)
(0.0293464 2.26561e-08 -3.83516e-08)
(0.0293464 -2.35746e-08 3.18817e-08)
(0.0293461 2.47222e-08 -3.57585e-08)
(0.0293469 -2.47451e-08 3.91138e-08)
(0.029346 2.12884e-08 -3.00945e-08)
(0.0293468 -2.03826e-08 2.99965e-08)
(0.0293461 1.92991e-08 -2.34254e-08)
(0.0293468 -1.99644e-08 2.43827e-08)
(0.029346 1.72666e-08 -1.88969e-08)
(0.0293468 -1.77619e-08 1.69649e-08)
(0.0293461 1.52896e-08 -1.6305e-08)
(0.0293466 -1.44157e-08 1.46147e-08)
(0.0293462 1.29145e-08 -1.20012e-08)
(0.0293463 -1.16426e-08 1.2127e-08)
(0.0293463 1.11282e-08 -1.17016e-08)
(0.0293463 -1.01136e-08 1.14734e-08)
(0.0293464 9.06163e-09 -1.19162e-08)
(0.0293463 -8.82609e-09 1.20814e-08)
(0.0293465 8.22306e-09 -1.24631e-08)
(0.0293466 -9.06132e-09 1.78512e-08)
(0.0138351 -0.00077128 0.000771281)
(0.0154484 -2.98636e-05 2.98655e-05)
(0.0123137 1.8015e-05 -1.80175e-05)
(0.0145666 -1.06544e-05 1.06566e-05)
(0.0132373 6.46813e-06 -6.46675e-06)
(0.0140452 -3.91099e-06 3.91981e-06)
(0.0135472 2.3468e-06 -2.34321e-06)
(0.0138564 -1.35994e-06 1.38323e-06)
(0.0136641 7.40112e-07 -7.72245e-07)
(0.0137801 -3.63954e-07 3.82535e-07)
(0.013718 1.54619e-07 -1.61215e-07)
(0.0137483 -4.77337e-08 4.75567e-08)
(0.0137354 -5.13279e-09 -4.75112e-09)
(0.0137393 1.81304e-08 -2.00197e-08)
(0.0137384 -2.44051e-08 2.09321e-08)
(0.0137381 2.3523e-08 -2.40795e-08)
(0.0137383 -2.40184e-08 2.0643e-08)
(0.0137381 2.29198e-08 -2.04704e-08)
(0.0137385 -2.16515e-08 2.23723e-08)
(0.0137383 2.21912e-08 -2.03935e-08)
(0.0137384 -2.23314e-08 2.08176e-08)
(0.0137382 2.21761e-08 -1.92996e-08)
(0.0137387 -2.01203e-08 2.11433e-08)
(0.0137382 1.94778e-08 -1.8011e-08)
(0.0137386 -1.82587e-08 1.72165e-08)
(0.0137383 1.67769e-08 -1.70832e-08)
(0.0137385 -1.64179e-08 1.45653e-08)
(0.0137383 1.54196e-08 -1.53402e-08)
(0.0137385 -1.49735e-08 1.32351e-08)
(0.0137384 1.4321e-08 -1.23831e-08)
(0.0137385 -1.35241e-08 1.34697e-08)
(0.0137385 1.31456e-08 -1.364e-08)
(0.0137384 -1.42278e-08 1.15545e-08)
(0.0137383 1.42351e-08 -1.26131e-08)
(0.0137387 -1.35135e-08 1.31371e-08)
(0.0137382 1.25072e-08 -1.12492e-08)
(0.0137386 -1.12175e-08 1.16083e-08)
(0.0137383 1.11339e-08 -9.5305e-09)
(0.0137386 -1.01488e-08 1.02322e-08)
(0.0137382 9.20116e-09 -9.09778e-09)
(0.0137386 -8.81634e-09 8.02555e-09)
(0.0137382 7.89119e-09 -7.58584e-09)
(0.0137385 -7.25737e-09 6.78635e-09)
(0.0137383 6.50926e-09 -6.04547e-09)
(0.0137384 -6.04566e-09 6.04768e-09)
(0.0137384 5.83083e-09 -5.70106e-09)
(0.0137384 -5.46561e-09 5.25883e-09)
(0.0137384 5.17466e-09 -4.93178e-09)
(0.0137384 -4.92924e-09 5.04738e-09)
(0.0137384 4.53818e-09 -4.74308e-09)
(0.0137384 -5.70285e-09 4.57813e-09)
(0.0283447 0.00124686 0.00157765)
(0.0327396 5.66551e-05 7.37318e-05)
(0.0265551 -3.26326e-05 -3.7352e-05)
(0.0309681 1.89122e-05 2.0047e-05)
(0.0283642 -1.14075e-05 -1.24095e-05)
(0.0299476 6.76569e-06 7.56607e-06)
(0.0289731 -3.94731e-06 -4.56716e-06)
(0.0295758 2.23283e-06 2.727e-06)
(0.0292039 -1.18742e-06 -1.53576e-06)
(0.0294262 6.00351e-07 7.34063e-07)
(0.0293072 -2.32769e-07 -3.05114e-07)
(0.0293654 5.52847e-08 8.64891e-08)
(0.0293406 8.9289e-09 1.73588e-09)
(0.0293483 -6.10336e-08 -4.05215e-08)
(0.0293463 5.98127e-08 3.93544e-08)
(0.0293458 -7.83113e-08 -4.36521e-08)
(0.0293463 6.55952e-08 3.45606e-08)
(0.0293457 -5.73587e-08 -3.70762e-08)
(0.0293465 7.06748e-08 4.0794e-08)
(0.029346 -6.11254e-08 -3.59258e-08)
(0.0293464 5.8499e-08 3.77667e-08)
(0.0293459 -4.43027e-08 -3.5241e-08)
(0.029347 5.30292e-08 3.98003e-08)
(0.0293461 -3.9941e-08 -3.18709e-08)
(0.0293468 3.92109e-08 3.0304e-08)
(0.0293462 -4.20363e-08 -3.00407e-08)
(0.0293466 3.29412e-08 2.69369e-08)
(0.0293463 -4.72767e-08 -2.8282e-08)
(0.0293464 4.08857e-08 2.18232e-08)
(0.0293464 -3.67442e-08 -2.13421e-08)
(0.0293465 4.45698e-08 2.27116e-08)
(0.0293464 -4.43603e-08 -2.25241e-08)
(0.0293464 3.49823e-08 1.98741e-08)
(0.0293461 -3.81134e-08 -2.1916e-08)
(0.0293469 4.35347e-08 2.47079e-08)
(0.029346 -3.37749e-08 -1.96427e-08)
(0.0293468 3.33309e-08 2.09645e-08)
(0.0293461 -2.3855e-08 -1.59669e-08)
(0.0293469 2.63375e-08 1.79492e-08)
(0.029346 -1.96261e-08 -1.43667e-08)
(0.0293468 1.66945e-08 1.6467e-08)
(0.0293461 -1.73035e-08 -1.37216e-08)
(0.0293466 1.43282e-08 1.19468e-08)
(0.0293463 -1.17973e-08 -1.0779e-08)
(0.0293464 1.23485e-08 1.07455e-08)
(0.0293464 -1.25026e-08 -1.03326e-08)
(0.0293464 1.21911e-08 9.30717e-09)
(0.0293464 -1.34998e-08 -8.15048e-09)
(0.0293463 1.29755e-08 8.83096e-09)
(0.0293465 -1.53588e-08 -6.48378e-09)
(0.0293466 1.86155e-08 8.13758e-09)
(0.0648755 0.00279606 0.00279606)
(0.0772863 0.000154207 0.000154207)
(0.0636084 -7.18604e-05 -7.18591e-05)
(0.0732181 3.66124e-05 3.66127e-05)
(0.067546 -2.29159e-05 -2.29182e-05)
(0.0709953 1.40781e-05 1.40744e-05)
(0.068881 -8.51157e-06 -8.51558e-06)
(0.0701806 5.12653e-06 5.12939e-06)
(0.0693861 -2.87517e-06 -2.87878e-06)
(0.0698572 1.33041e-06 1.31972e-06)
(0.0696023 -5.29308e-07 -5.2679e-07)
(0.0697307 1.30861e-07 1.34322e-07)
(0.0696738 1.18425e-08 1.71406e-08)
(0.0696928 -8.52935e-08 -8.49054e-08)
(0.0696871 7.14783e-08 7.32484e-08)
(0.0696867 -7.28354e-08 -7.34092e-08)
(0.0696875 5.40576e-08 5.46588e-08)
(0.069686 -6.54302e-08 -6.65862e-08)
(0.069688 7.09103e-08 7.0038e-08)
(0.0696867 -6.11308e-08 -6.12764e-08)
(0.0696878 6.39217e-08 6.45771e-08)
(0.0696863 -6.51042e-08 -6.67964e-08)
(0.0696886 7.05037e-08 6.98436e-08)
(0.0696868 -5.43344e-08 -5.41212e-08)
(0.0696882 4.98498e-08 4.74356e-08)
(0.069687 -5.14602e-08 -4.56097e-08)
(0.0696877 4.75793e-08 4.85366e-08)
(0.0696874 -4.54283e-08 -4.52173e-08)
(0.0696874 3.43037e-08 3.46837e-08)
(0.0696874 -3.44443e-08 -3.55963e-08)
(0.0696877 3.49804e-08 3.46406e-08)
(0.0696874 -3.58557e-08 -3.42714e-08)
(0.0696875 3.22238e-08 3.34505e-08)
(0.0696868 -3.74031e-08 -3.76919e-08)
(0.0696885 3.93628e-08 3.95791e-08)