/*--------------------------------*- C++ -*----------------------------------*\
  =========                 |
  \\      /  F ield         | OpenFOAM: The Open Source CFD Toolbox
   \\    /   O peration     | Website:  https://openfoam.org
    \\  /    A nd           | Version:  13
     \\/     M anipulation  |
\*---------------------------------------------------------------------------*/
FoamFile
{
    format      ascii;
    class       surfaceScalarField;
    location    "28";
    object      phi;
}
// * * * * * * * * * * * * * * * * * * * * * * * * * * * * * * * * * * * * * //

dimensions      [0 3 -1 0 0 0 0];

internalField   nonuniform List<scalar> 
1275
(
3.47507e-10
1.59647e-10
1.59647e-10
2.78095e-10
3.47058e-11
3.47061e-11
2.65969e-10
6.06289e-12
6.06318e-12
2.71301e-10
-2.6662e-12
-2.66626e-12
2.73274e-10
-9.86097e-13
-9.86147e-13
2.73135e-10
6.92435e-14
6.95458e-14
2.73086e-10
2.46704e-14
2.41661e-14
2.73097e-10
-5.94351e-15
-5.71008e-15
2.73094e-10
1.46613e-15
1.35333e-15
2.73076e-10
7.57866e-15
6.92755e-15
2.73099e-10
-9.9466e-15
-8.88586e-15
2.73076e-10
9.80812e-15
7.87991e-15
2.73098e-10
-9.4669e-15
-7.75174e-15
2.7308e-10
8.26079e-15
6.33512e-15
2.73096e-10
-7.04224e-15
-5.21091e-15
2.73091e-10
2.80224e-15
1.50798e-15
2.7309e-10
3.10505e-16
7.57564e-16
2.73091e-10
-2.54143e-17
-7.68456e-17
2.73092e-10
-7.58971e-16
-4.3403e-16
6.34263e-16
2.73043e-16
5.36754e-10
6.86942e-11
2.21e-10
4.93715e-10
1.6899e-11
6.0846e-11
4.83391e-10
3.67759e-12
1.27084e-11
4.86141e-10
-1.22346e-12
-4.19272e-12
4.88069e-10
-6.0338e-13
-2.31075e-12
4.88212e-10
-1.01772e-14
-6.35635e-14
4.8815e-10
8.57026e-15
7.75383e-14
4.88142e-10
-1.71634e-15
2.68508e-15
4.88141e-10
1.11097e-15
9.77838e-16
4.88122e-10
1.6078e-15
1.44329e-14
4.88144e-10
-2.44269e-15
-2.07011e-14
4.88122e-10
2.03438e-15
1.9708e-14
4.88144e-10
-1.64523e-15
-1.96034e-14
4.88126e-10
1.73399e-15
1.67624e-14
4.88142e-10
-8.6493e-16
-1.40891e-14
4.88138e-10
8.92733e-16
5.95716e-15
4.88138e-10
8.78462e-16
4.23027e-16
4.88138e-10
-4.66387e-16
1.2682e-16
4.8814e-10
1.7869e-16
6.7341e-16
-6.07791e-17
-8.72796e-16
5.77507e-10
-6.86941e-11
2.26682e-10
5.50321e-10
-1.68981e-11
6.09834e-11
5.43839e-10
-3.6792e-12
1.38378e-11
5.45688e-10
1.2244e-12
-4.2969e-12
5.47092e-10
6.028e-13
-2.61034e-12
5.47203e-10
1.08765e-14
-1.32122e-13
5.47143e-10
-9.37983e-15
7.76484e-14
5.47134e-10
1.12356e-15
5.50693e-15
5.47135e-10
-2.3458e-15
1.95953e-15
5.47118e-10
-8.28755e-15
1.75197e-14
5.47139e-10
1.35578e-14
-2.72141e-14
5.47116e-10
-1.3653e-14
2.7099e-14
5.47138e-10
1.44306e-14
-2.67556e-14
5.4712e-10
-1.23026e-14
2.36883e-14
5.47137e-10
1.21603e-14
-2.05613e-14
5.47133e-10
-5.94153e-15
1.051e-14
5.47133e-10
1.17983e-15
-3.91394e-17
5.47133e-10
-6.45283e-16
-1.72701e-17
5.47135e-10
1.22226e-15
-5.78837e-16
-9.88852e-16
6.45732e-16
5.36754e-10
-1.59646e-10
2.21e-10
4.93715e-10
-3.47056e-11
6.08463e-11
4.83391e-10
-6.06374e-12
1.27077e-11
4.86141e-10
2.66638e-12
-4.19187e-12
4.88069e-10
9.85634e-13
-2.31079e-12
4.88212e-10
-6.89818e-14
-6.32716e-14
4.8815e-10
-2.49908e-14
7.6875e-14
4.88142e-10
5.55365e-15
2.76735e-15
4.8814e-10
-1.95727e-15
3.91296e-16
4.88122e-10
-1.17105e-14
1.25191e-14
4.88144e-10
1.64497e-14
-1.73456e-14
4.88122e-10
-1.68454e-14
1.49919e-14
4.88144e-10
1.7059e-14
-1.53174e-14
4.88126e-10
-1.44872e-14
1.23516e-14
4.88142e-10
1.3772e-14
-9.84399e-15
4.88138e-10
-5.73499e-15
3.54472e-15
4.88138e-10
1.01679e-15
9.57864e-16
4.88138e-10
-7.0877e-16
3.39992e-18
4.8814e-10
1.49829e-15
5.78361e-16
-9.15685e-16
-5.65219e-16
3.47507e-10
1.59646e-10
2.78095e-10
3.47064e-11
2.65969e-10
6.06255e-12
2.71301e-10
-2.66606e-12
2.73274e-10
-9.86669e-13
2.73135e-10
6.98604e-14
2.73086e-10
2.40121e-14
2.73097e-10
-6.00298e-15
2.73094e-10
1.00712e-15
2.73076e-10
4.74897e-15
2.73099e-10
-5.364e-15
2.73076e-10
3.52458e-15
2.73098e-10
-3.01314e-15
2.7308e-10
2.11142e-15
2.73096e-10
-4.90064e-16
2.73091e-10
-1.07353e-15
2.7309e-10
2.03104e-15
2.73091e-10
-8.73796e-16
2.73092e-10
6.57213e-16
-5.16665e-16
5.36754e-10
2.21e-10
6.8694e-11
4.93715e-10
6.08459e-11
1.68995e-11
4.83391e-10
1.27086e-11
3.67774e-12
4.86141e-10
-4.19251e-12
-1.22374e-12
4.88069e-10
-2.3105e-12
-6.0372e-13
4.88212e-10
-6.41965e-14
-9.2338e-15
4.8815e-10
7.76248e-14
8.04164e-15
4.88142e-10
2.87302e-15
-1.69797e-15
4.88141e-10
8.80929e-16
1.11062e-15
4.88122e-10
1.58008e-14
-1.05072e-16
4.88144e-10
-2.04296e-14
-1.24101e-15
4.88122e-10
2.13141e-14
-9.27242e-16
4.88144e-10
-2.01235e-14
7.31552e-16
4.88126e-10
1.83066e-14
-1.27938e-15
4.88142e-10
-1.5253e-14
1.97191e-15
4.88138e-10
6.44453e-15
-7.57593e-16
4.88138e-10
2.19211e-16
1.55631e-15
4.88138e-10
2.79319e-16
-7.19679e-16
4.8814e-10
-2.19167e-16
1.62502e-15
9.06893e-17
-1.53607e-15
9.04817e-10
1.01992e-10
1.01992e-10
9.56728e-10
3.48908e-11
3.48911e-11
9.64314e-10
8.91428e-12
8.91412e-12
9.59404e-10
-1.73792e-12
-1.73798e-12
9.5783e-10
-1.52327e-12
-1.5234e-12
9.58122e-10
-2.09904e-13
-2.10185e-13
9.58218e-10
2.85583e-14
2.96889e-14
9.582e-10
1.10001e-14
1.00785e-14
9.58193e-10
3.96742e-15
3.87573e-15
9.58197e-10
2.68738e-15
1.12985e-15
9.58186e-10
8.71933e-16
-4.01739e-15
9.58194e-10
3.24033e-15
2.94358e-15
9.58186e-10
7.65758e-17
-2.94435e-15
9.58195e-10
3.67358e-15
3.38994e-15
9.5819e-10
-1.10381e-15
-2.08598e-15
9.58196e-10
2.32019e-15
3.1524e-15
9.58198e-10
2.47765e-16
2.8191e-16
9.58198e-10
3.11211e-16
1.15044e-16
9.58198e-10
-2.87587e-16
3.42148e-15
4.51692e-16
-3.32522e-15
9.91484e-10
-1.01992e-10
1.05984e-10
1.08575e-09
-3.48903e-11
3.64982e-11
1.10728e-09
-8.91445e-12
1.0133e-11
1.10115e-09
1.73641e-12
-1.63736e-12
1.09724e-09
1.52331e-12
-1.74475e-12
1.09699e-09
2.09584e-13
-3.03016e-13
1.0971e-09
-2.8312e-14
2.04914e-14
1.09711e-09
-1.22137e-14
1.41294e-14
1.09712e-09
-4.87835e-15
5.70039e-15
1.09712e-09
-1.0137e-14
1.76367e-15
1.09711e-09
1.07705e-14
-8.20491e-15
1.09712e-09
-6.80837e-15
5.31638e-15
1.09711e-09
9.41513e-15
-6.44881e-15
1.09712e-09
-4.96604e-15
5.61397e-15
1.09711e-09
6.0925e-15
-4.31401e-15
1.09712e-09
1.44766e-15
5.10569e-15
1.09712e-09
-9.43125e-16
2.40896e-16
1.09712e-09
-4.80381e-16
1.09706e-16
1.09712e-09
1.53396e-15
4.3093e-15
-5.4492e-16
-4.17367e-15
9.04817e-10
-2.21e-10
1.01991e-10
9.56728e-10
-6.08458e-11
3.48922e-11
9.64314e-10
-1.27094e-11
8.91468e-12
9.59404e-10
4.19195e-12
-1.73813e-12
9.5783e-10
2.31046e-12
-1.52366e-12
9.58122e-10
6.41852e-14
-2.09991e-13
9.58218e-10
-7.72298e-14
2.96832e-14
9.582e-10
-3.93559e-15
9.92892e-15
9.58192e-10
-1.23827e-15
2.88803e-15
9.58196e-10
-2.09726e-14
1.77414e-15
9.58185e-10
2.52961e-14
-7.17262e-15
9.58194e-10
-2.44652e-14
5.24859e-15
9.58186e-10
2.49216e-14
-5.25911e-15
9.58194e-10
-2.02336e-14
5.19129e-15
9.58191e-10
1.88484e-14
-3.08409e-15
9.58197e-10
-5.18316e-15
4.37165e-15
9.58198e-10
1.14186e-16
9.32358e-17
9.58198e-10
-8.70821e-16
2.51308e-16
9.58198e-10
2.39811e-15
4.69262e-15
-1.30964e-15
-4.33437e-15
5.36754e-10
6.86939e-11
4.93715e-10
1.68991e-11
4.83391e-10
3.67693e-12
4.86141e-10
-1.22384e-12
4.88069e-10
-6.04082e-13
4.88212e-10
-9.13481e-15
4.8815e-10
8.10996e-15
4.88142e-10
-1.80686e-15
4.8814e-10
1.4387e-15
4.88122e-10
-2.90436e-16
4.88144e-10
1.22321e-16
4.88121e-10
-1.61888e-15
4.88144e-10
2.43497e-15
4.88126e-10
-2.3671e-15
4.88142e-10
3.84222e-15
4.88138e-10
-2.42781e-15
4.88138e-10
2.66272e-15
4.88138e-10
-1.73838e-15
4.8814e-10
1.73046e-15
-1.35644e-15
5.77507e-10
2.26682e-10
-6.86942e-11
5.50321e-10
6.09833e-11
-1.68979e-11
5.43839e-10
1.38382e-11
-3.67952e-12
5.45688e-10
-4.29673e-12
1.22401e-12
5.47092e-10
-2.61021e-12
6.02545e-13
5.47203e-10
-1.3209e-13
1.15632e-14
5.47143e-10
7.67553e-14
-9.53397e-15
5.47134e-10
6.19099e-15
1.04005e-15
5.47135e-10
1.70299e-15
-2.01505e-15
5.47118e-10
1.84789e-14
-9.72216e-15
5.47139e-10
-2.39564e-14
1.49805e-14
5.47116e-10
2.69302e-14
-1.57573e-14
5.47138e-10
-2.44299e-14
1.6384e-14
5.4712e-10
2.35006e-14
-1.43616e-14
5.47137e-10
-1.94624e-14
1.40652e-14
5.47133e-10
9.82405e-15
-7.01437e-15
5.47133e-10
-1.43425e-16
1.72995e-15
5.47133e-10
2.99901e-16
-9.60749e-16
5.47135e-10
-2.62861e-15
2.07323e-15
2.71153e-15
-1.80499e-15
9.91484e-10
1.05984e-10
-1.01992e-10
1.08575e-09
3.6498e-11
-3.48899e-11
1.10728e-09
1.01329e-11
-8.91411e-12
1.10115e-09
-1.63734e-12
1.7365e-12
1.09724e-09
-1.74443e-12
1.52309e-12
1.09699e-09
-3.03009e-13
2.09249e-13
1.0971e-09
1.94026e-14
-2.72102e-14
1.09711e-09
1.50956e-14
-1.31232e-14
1.09712e-09
5.62517e-15
-5.19318e-15
1.09712e-09
3.80224e-15
-1.0901e-14
1.09711e-09
-4.00599e-15
6.05505e-15
1.09712e-09
6.00531e-15
-5.86012e-15
1.09711e-09
-4.08838e-15
6.1947e-15
1.09712e-09
6.20663e-15
-4.19639e-15
1.09711e-09
-3.79513e-15
4.61822e-15
1.09712e-09
4.24036e-15
2.69742e-15
1.09712e-09
1.7581e-16
-1.02963e-15
1.09712e-09
3.44985e-16
-5.30959e-16
1.09712e-09
6.08506e-16
5.35501e-15
-4.21136e-16
-4.45189e-15
1.09074e-09
-1.05985e-10
-1.05985e-10
1.23673e-09
-3.64964e-11
-3.6496e-11
1.27726e-09
-1.01331e-11
-1.01328e-11
1.27071e-09
1.63745e-12
1.63756e-12
1.26373e-09
1.7451e-12
1.74465e-12
1.26252e-09
3.02754e-13
3.02704e-13
1.26259e-09
-1.92562e-14
-1.8221e-14
1.26266e-09
-1.65619e-14
-1.74427e-14
1.26268e-09
-7.53425e-15
-7.49567e-15
1.26269e-09
-1.1407e-14
-1.28548e-14
1.26268e-09
1.20569e-14
8.76744e-15
1.26268e-09
-7.88021e-15
-7.85292e-15
1.26267e-09
1.11729e-14
9.18538e-15
1.26268e-09
-5.90689e-15
-5.90256e-15
1.26268e-09
7.77639e-15
7.13654e-15
1.26269e-09
1.27917e-15
2.23243e-15
1.26269e-09
-1.08373e-15
-1.08496e-15
1.26269e-09
-4.36416e-17
-2.49149e-16
1.26269e-09
1.25416e-15
4.63127e-15
-5.35467e-16
-3.92281e-15
9.91484e-10
-2.26682e-10
-1.01992e-10
1.08575e-09
-6.09829e-11
-3.48898e-11
1.10728e-09
-1.38383e-11
-8.91349e-12
1.10115e-09
4.29667e-12
1.73688e-12
1.09724e-09
2.6111e-12
1.52318e-12
1.09699e-09
1.31351e-13
2.09396e-13
1.0971e-09
-7.69521e-14
-2.76595e-14
1.09711e-09
-6.67131e-15
-1.2754e-14
1.09711e-09
-3.10697e-15
-5.08418e-15
1.09712e-09
-2.29654e-14
-1.03662e-14
1.09711e-09
2.96339e-14
5.50857e-15
1.09712e-09
-2.93272e-14
-5.65333e-15
1.09711e-09
2.88739e-14
5.73077e-15
1.09712e-09
-2.37663e-14
-3.91622e-15
1.09711e-09
2.1443e-14
4.28524e-15
1.09712e-09
-5.88681e-15
2.72756e-15
1.09712e-09
-1.69841e-15
-1.24758e-15
1.09712e-09
1.02613e-15
-1.30993e-16
1.09712e-09
1.99726e-15
4.33774e-15
-1.19325e-15
-3.42076e-15
5.77507e-10
-6.86943e-11
5.50321e-10
-1.68982e-11
5.43839e-10
-3.67967e-12
5.45688e-10
1.22395e-12
5.47092e-10
6.03006e-13
5.47203e-10
1.10646e-14
5.47143e-10
-9.14645e-15
5.47134e-10
9.81756e-16
5.47134e-10
-2.18036e-15
5.47117e-10
-8.36856e-15
5.47138e-10
1.13501e-14
5.47116e-10
-1.21257e-14
5.47138e-10
1.24024e-14
5.4712e-10
-1.08871e-14
5.47137e-10
1.07944e-14
5.47133e-10
-4.73535e-15
5.47133e-10
1.02652e-15
5.47133e-10
-7.10588e-16
5.47135e-10
1.74303e-15
-1.31938e-15
5.36754e-10
2.21e-10
-1.59647e-10
4.93715e-10
6.08465e-11
-3.47056e-11
4.83391e-10
1.27078e-11
-6.06417e-12
4.86141e-10
-4.19217e-12
2.6663e-12
4.88069e-10
-2.31105e-12
9.85748e-13
4.88212e-10
-6.27029e-14
-6.89197e-14
4.8815e-10
7.63798e-14
-2.48788e-14
4.88142e-10
3.10188e-15
5.43419e-15
4.8814e-10
5.94521e-16
-1.91721e-15
4.88122e-10
1.27377e-14
-1.16703e-14
4.88144e-10
-1.44168e-14
1.58354e-14
4.88122e-10
1.43371e-14
-1.63944e-14
4.88144e-10
-1.30196e-14
1.64775e-14
4.88126e-10
1.15704e-14
-1.41241e-14
4.88142e-10
-8.49546e-15
1.33534e-14
4.88138e-10
2.49749e-15
-5.54924e-15
4.88138e-10
1.31858e-15
1.1343e-15
4.88138e-10
-1.39188e-16
-8.67037e-16
4.8814e-10
-3.08009e-16
1.85148e-15
3.76695e-16
-1.222e-15
9.04817e-10
1.01992e-10
-2.21e-10
9.56728e-10
3.48918e-11
-6.08458e-11
9.64314e-10
8.91472e-12
-1.27092e-11
9.59404e-10
-1.73826e-12
4.19208e-12
9.5783e-10
-1.52363e-12
2.31058e-12
9.58122e-10
-2.09569e-13
6.34904e-14
9.58218e-10
2.84368e-14
-7.67713e-14
9.582e-10
1.09806e-14
-4.08157e-15
9.58192e-10
3.12649e-15
-1.48417e-15
9.58196e-10
3.12873e-15
-2.01926e-14
9.58185e-10
-1.3785e-15
2.37008e-14
9.58194e-10
4.87208e-15
-2.29164e-14
9.58186e-10
-1.42199e-15
2.31576e-14
9.58195e-10
4.86448e-15
-1.86795e-14
9.58191e-10
-1.53433e-15
1.726e-14
9.58197e-10
3.12171e-15
-4.13827e-15
9.58198e-10
1.02748e-16
-3.56324e-16
9.58198e-10
4.32784e-16
-6.11407e-16
9.58198e-10
4.31148e-16
2.55552e-15
-3.16837e-17
-1.47301e-15
9.91484e-10
-1.01992e-10
-2.26682e-10
1.08575e-09
-3.48901e-11
-6.09829e-11
1.10728e-09
-8.91388e-12
-1.38375e-11
1.10115e-09
1.73673e-12
4.29689e-12
1.09724e-09
1.52343e-12
2.61065e-12
1.09699e-09
2.09661e-13
1.31304e-13
1.0971e-09
-2.86225e-14
-7.65994e-14
1.09711e-09
-1.1954e-14
-6.88659e-15
1.09711e-09
-4.89813e-15
-2.9872e-15
1.09712e-09
-9.37246e-15
-2.33258e-14
1.09711e-09
9.25607e-15
2.93933e-14
1.09712e-09
-5.95285e-15
-2.92497e-14
1.09711e-09
8.15666e-15
2.86453e-14
1.09712e-09
-4.12492e-15
-2.36154e-14
1.09711e-09
5.21589e-15
2.12597e-14
1.09712e-09
1.80638e-15
-5.41457e-15
1.09712e-09
-1.10651e-15
-2.00939e-15
1.09712e-09
-6.72033e-17
1.12346e-15
1.09712e-09
9.62912e-16
2.39322e-15
-4.70939e-18
-1.59877e-15
9.04817e-10
-2.20999e-10
-2.20999e-10
9.56728e-10
-6.08461e-11
-6.08458e-11
9.64314e-10
-1.27076e-11
-1.27075e-11
9.59404e-10
4.1918e-12
4.19157e-12
9.5783e-10
2.311e-12
2.31068e-12
9.58122e-10
6.28925e-14
6.33941e-14
9.58218e-10
-7.67595e-14
-7.68427e-14
9.582e-10
-3.62734e-15
-3.70775e-15
9.58192e-10
-1.25536e-15
-1.13642e-15
9.58195e-10
-1.76903e-14
-1.85124e-14
9.58185e-10
2.06175e-14
2.11306e-14
9.58194e-10
-1.93761e-14
-2.04699e-14
9.58186e-10
1.90542e-14
1.99183e-14
9.58195e-10
-1.49183e-14
-1.60259e-14
9.58191e-10
1.28442e-14
1.38532e-14
9.58197e-10
-1.76799e-15
-2.28896e-15
9.58198e-10
-1.77419e-15
-1.56953e-15
9.58198e-10
5.84161e-16
4.64196e-16
9.58198e-10
1.15255e-15
1.78941e-15
-2.31927e-16
-9.01838e-16
5.36754e-10
-1.59646e-10
4.93715e-10
-3.47059e-11
4.83391e-10
-6.06348e-12
4.86141e-10
2.66609e-12
4.88069e-10
9.86247e-13
4.88212e-10
-6.92463e-14
4.8815e-10
-2.47145e-14
4.88142e-10
5.70454e-15
4.8814e-10
-1.64925e-15
4.88122e-10
-9.42588e-15
4.88144e-10
1.20428e-14
4.88121e-10
-1.18552e-14
4.88144e-10
1.16091e-14
4.88126e-10
-9.74279e-15
4.88143e-10
8.68138e-15
4.88139e-10
-2.83977e-15
4.88138e-10
-2.13669e-16
4.88138e-10
-3.91965e-17
4.8814e-10
9.02172e-16
-4.69693e-16
3.47507e-10
1.59647e-10
2.78095e-10
3.47062e-11
2.65969e-10
6.06209e-12
2.71301e-10
-2.66612e-12
2.73274e-10
-9.86465e-13
2.73135e-10
6.98596e-14
2.73086e-10
2.39374e-14
2.73097e-10
-5.92419e-15
2.73094e-10
1.05016e-15
2.73076e-10
5.21668e-15
2.73099e-10
-5.22488e-15
2.73076e-10
4.18216e-15
2.73098e-10
-3.24942e-15
2.7308e-10
2.70852e-15
2.73096e-10
-9.4579e-16
2.73091e-10
-9.39308e-16
2.7309e-10
2.07114e-15
2.73091e-10
-9.51247e-16
2.73092e-10
8.24787e-17
9.37187e-17
5.36754e-10
6.8694e-11
4.93715e-10
1.68989e-11
4.83391e-10
3.67665e-12
4.86141e-10
-1.22374e-12
4.88069e-10
-6.03626e-13
4.88212e-10
-9.88473e-15
4.8815e-10
8.3149e-15
4.88142e-10
-1.70055e-15
4.8814e-10
1.21399e-15
4.88122e-10
1.25534e-15
4.88144e-10
-1.00147e-15
4.88121e-10
6.24262e-16
4.88144e-10
5.58171e-16
4.88126e-10
-1.2942e-16
4.88142e-10
1.76667e-15
4.88138e-10
-1.34412e-15
4.88138e-10
2.20555e-15
4.88138e-10
-1.49096e-15
4.8814e-10
5.64399e-16
-1.88157e-16
5.77507e-10
-6.86941e-11
5.50321e-10
-1.68985e-11
5.43839e-10
-3.67927e-12
5.45688e-10
1.22433e-12
5.47092e-10
6.03085e-13
5.47203e-10
1.0235e-14
5.47143e-10
-8.63617e-15
5.47134e-10
9.15877e-16
5.47134e-10
-2.27991e-15
5.47117e-10
-7.11421e-15
5.47138e-10
1.00399e-14
5.47116e-10
-9.79655e-15
5.47138e-10
1.03177e-14
5.4712e-10
-8.47481e-15
5.47137e-10
8.51586e-15
5.47133e-10
-3.19786e-15
5.47133e-10
2.75115e-16
5.47133e-10
-3.62554e-16
5.47135e-10
8.1287e-16
-4.0652e-16
5.36754e-10
-1.59646e-10
4.93715e-10
-3.47059e-11
4.83391e-10
-6.06299e-12
4.86141e-10
2.66628e-12
4.88069e-10
9.86004e-13
4.88212e-10
-6.95916e-14
4.8815e-10
-2.4282e-14
4.88142e-10
5.55561e-15
4.8814e-10
-1.61138e-15
4.88122e-10
-9.00152e-15
4.88144e-10
1.12424e-14
4.88121e-10
-1.062e-14
4.88144e-10
1.03862e-14
4.88126e-10
-8.43343e-15
4.88143e-10
7.39574e-15
4.88139e-10
-1.81394e-15
4.88138e-10
-7.58504e-16
4.88138e-10
1.86957e-16
4.8814e-10
6.10882e-16
-2.26363e-16
3.47507e-10
2.78096e-10
2.65969e-10
2.71301e-10
2.73274e-10
2.73135e-10
2.73086e-10
2.73097e-10
2.73094e-10
2.73075e-10
2.73099e-10
2.73076e-10
2.73098e-10
2.7308e-10
2.73096e-10
2.73091e-10
2.7309e-10
2.73091e-10
2.73092e-10
)
;

boundaryField
{
    inlet
    {
        type            calculated;
        value           nonuniform List<scalar> 
25
(
-6.668e-10
-6.668e-10
-6.668e-10
-6.668e-10
-6.668e-10
-6.668e-10
-6.668e-10
-6.668e-10
-6.668e-10
-6.668e-10
-6.668e-10
-6.668e-10
-6.668e-10
-6.668e-10
-6.668e-10
-6.668e-10
-6.668e-10
-6.668e-10
-6.668e-10
-6.668e-10
-6.668e-10
-6.668e-10
-6.668e-10
-6.668e-10
-6.668e-10
)
;
    }
    outlet
    {
        type            calculated;
        value           nonuniform List<scalar> 
25
(
2.73091e-10
4.88139e-10
5.47134e-10
4.88139e-10
2.73091e-10
4.88139e-10
9.58201e-10
1.09713e-09
9.58201e-10
4.88139e-10
5.47134e-10
1.09713e-09
1.26269e-09
1.09713e-09
5.47135e-10
4.88139e-10
9.58201e-10
1.09713e-09
9.58201e-10
4.88139e-10
2.73091e-10
4.88139e-10
5.47135e-10
4.88139e-10
2.73091e-10
)
;
    }
    Walls
    {
        type            calculated;
        value           uniform 0;
    }
}


// ************************************************************************* //
