/*--------------------------------*- C++ -*----------------------------------*\
  =========                 |
  \\      /  F ield         | OpenFOAM: The Open Source CFD Toolbox
   \\    /   O peration     | Website:  https://openfoam.org
    \\  /    A nd           | Version:  13
     \\/     M anipulation  |
\*---------------------------------------------------------------------------*/
FoamFile
{
    format      ascii;
    class       volVectorField;
    location    "28";
    object      U;
}
// * * * * * * * * * * * * * * * * * * * * * * * * * * * * * * * * * * * * * //

dimensions      [0 1 -1 0 0 0 0];

internalField   nonuniform List<vector> 
500
(
(0.701346 0.00443257 0.00443257)
(0.771072 0.00113238 0.00113239)
(0.684846 6.00609e-05 6.00719e-05)
(0.666169 -9.58069e-05 -9.58058e-05)
(0.681582 -1.11081e-05 -1.11073e-05)
(0.683657 5.25806e-06 5.26096e-06)
(0.68269 -1.45737e-07 -1.60057e-07)
(0.682695 -2.49904e-07 -2.41472e-07)
(0.682754 4.35435e-08 3.91044e-08)
(0.682705 2.38038e-07 2.26492e-07)
(0.682722 -3.67776e-07 -3.39402e-07)
(0.682716 3.74196e-07 3.24223e-07)
(0.682721 -3.5932e-07 -3.13325e-07)
(0.682721 3.15532e-07 2.65329e-07)
(0.682719 -2.63971e-07 -2.16088e-07)
(0.682736 1.26066e-07 8.85465e-08)
(0.682727 -6.90175e-09 6.80631e-09)
(0.682725 -1.86752e-09 -3.30636e-09)
(0.682729 -2.25143e-08 -1.59142e-08)
(0.68273 2.67758e-08 1.97495e-08)
(1.07595 0.0065069 0.00613033)
(1.30497 0.00197553 0.0021608)
(1.23807 0.000390989 0.000210502)
(1.20306 -0.000108495 -0.000187045)
(1.21763 -6.63201e-05 -4.70206e-05)
(1.22142 -3.05167e-06 8.77674e-06)
(1.22041 1.77918e-06 2.10662e-06)
(1.22029 2.64879e-08 -4.39091e-07)
(1.22037 7.97294e-08 -5.38325e-08)
(1.22032 3.29829e-07 8.52055e-07)
(1.22034 -4.14657e-07 -1.38281e-06)
(1.22033 3.85317e-07 1.41939e-06)
(1.22034 -3.66423e-07 -1.35755e-06)
(1.22033 3.23046e-07 1.22631e-06)
(1.22034 -2.71801e-07 -1.11591e-06)
(1.22035 1.04133e-07 5.03159e-07)
(1.22035 4.85442e-08 6.03262e-09)
(1.22034 -1.47958e-08 -4.92737e-08)
(1.22035 -2.61157e-08 -8.41436e-08)
(1.22035 2.00776e-08 8.58427e-08)
(1.14888 2.80215e-09 0.00593913)
(1.43567 -6.2283e-09 0.00212564)
(1.38989 -5.22497e-08 0.000216577)
(1.35323 2.76618e-08 -0.000200719)
(1.36531 -7.23336e-09 -5.42044e-05)
(1.36888 1.80899e-08 9.47909e-06)
(1.3679 -2.4012e-08 2.61253e-06)
(1.36777 -1.66224e-08 -5.20708e-07)
(1.36786 -3.42427e-08 -1.06377e-07)
(1.36781 -1.87973e-07 9.56448e-07)
(1.36783 3.00646e-07 -1.66504e-06)
(1.36781 -3.20916e-07 1.70646e-06)
(1.36782 3.44426e-07 -1.6356e-06)
(1.36782 -2.90035e-07 1.47978e-06)
(1.36782 3.06852e-07 -1.35262e-06)
(1.36784 -1.35519e-07 6.59827e-07)
(1.36783 5.36174e-08 2.85099e-08)
(1.36783 -2.8048e-08 -8.43467e-08)
(1.36784 3.65945e-08 -9.016e-08)
(1.36784 -2.82079e-08 1.01923e-07)
(1.07595 -0.0065069 0.00613033)
(1.30497 -0.00197548 0.00216081)
(1.23807 -0.000391053 0.00021044)
(1.20306 0.000108525 -0.000187019)
(1.21763 6.62909e-05 -4.70222e-05)
(1.22142 3.07634e-06 8.82201e-06)
(1.22041 -1.80849e-06 2.0598e-06)
(1.22029 -5.25135e-08 -4.47204e-07)
(1.22037 -1.23964e-07 -9.43583e-08)
(1.22032 -6.18621e-07 7.19742e-07)
(1.22034 8.79457e-07 -1.14419e-06)
(1.22033 -8.73409e-07 1.12821e-06)
(1.22034 9.0266e-07 -1.07265e-06)
(1.22033 -7.61263e-07 9.44221e-07)
(1.22034 7.45447e-07 -8.12395e-07)
(1.22035 -3.09211e-07 3.30743e-07)
(1.22035 4.09114e-08 6.74581e-08)
(1.22034 -3.55878e-08 -7.41745e-08)
(1.22035 8.07868e-08 -4.21196e-08)
(1.22035 -5.25393e-08 4.98969e-08)
(0.701347 -0.00443256 0.00443257)
(0.771072 -0.00113233 0.00113236)
(0.684846 -6.00657e-05 6.00294e-05)
(0.666169 9.58051e-05 -9.58012e-05)
(0.681582 1.10798e-05 -1.11113e-05)
(0.683657 -5.24935e-06 5.27118e-06)
(0.68269 1.43024e-07 -1.68855e-07)
(0.682695 2.39662e-07 -2.49412e-07)
(0.682754 -5.24683e-08 2.44011e-08)
(0.682705 -3.40477e-07 1.65907e-07)
(0.682722 5.28441e-07 -2.30951e-07)
(0.682715 -5.55371e-07 1.95161e-07)
(0.682721 5.50372e-07 -1.67997e-07)
(0.682721 -4.74877e-07 1.39263e-07)
(0.682719 4.29228e-07 -6.90921e-08)
(0.682736 -2.01818e-07 9.60252e-09)
(0.682727 4.08111e-08 4.66789e-08)
(0.682726 -1.65534e-08 -2.62132e-08)
(0.682729 4.14973e-08 1.32768e-08)
(0.68273 -3.3307e-08 -2.49697e-09)
(1.07595 0.00613033 0.0065069)
(1.30497 0.00216079 0.00197555)
(1.23807 0.000210487 0.000391003)
(1.20306 -0.000187048 -0.000108503)
(1.21763 -4.70213e-05 -6.63306e-05)
(1.22142 8.77372e-06 -3.01514e-06)
(1.22041 2.12111e-06 1.74796e-06)
(1.22029 -4.46543e-07 3.314e-08)
(1.22037 -5.04672e-08 7.56494e-08)
(1.22032 8.74793e-07 2.62999e-07)
(1.22034 -1.41841e-06 -3.46318e-07)
(1.22033 1.48022e-06 2.49573e-07)
(1.22034 -1.41306e-06 -2.50846e-07)
(1.22033 1.28392e-06 1.87385e-07)
(1.22034 -1.17283e-06 -1.41193e-07)
(1.22035 5.38471e-07 2.56702e-08)
(1.22035 -6.34274e-09 7.56438e-08)
(1.22034 -4.77301e-08 -2.09167e-08)
(1.22035 -9.65915e-08 2.07078e-08)
(1.22035 9.77035e-08 -2.8439e-08)
(1.76967 0.00966077 0.00966076)
(2.41203 0.0040431 0.00404311)
(2.45415 0.000956958 0.000956941)
(2.39408 -0.000149492 -0.000149501)
(2.39189 -0.000162807 -0.000162822)
(2.39584 -2.59778e-05 -2.59531e-05)
(2.39561 4.00759e-06 4.0381e-06)
(2.39543 1.56041e-06 1.52165e-06)
(2.3955 2.45975e-07 2.52546e-07)
(2.39549 3.26292e-07 2.28811e-07)
(2.39549 -3.2305e-08 -1.78684e-07)
(2.39546 2.69961e-08 -2.56513e-08)
(2.39548 7.88056e-08 6.90629e-10)
(2.39547 -5.27493e-09 -5.50505e-08)
(2.39548 1.39725e-07 1.41128e-07)
(2.39548 -1.37527e-07 -1.18766e-07)
(2.39549 1.23712e-07 1.25711e-07)
(2.39549 4.6444e-08 3.32878e-08)
(2.39549 3.67766e-08 1.69292e-07)
(2.3955 -5.68385e-08 -1.92121e-07)
(1.91574 2.49231e-09 0.0101131)
(2.70065 2.21823e-08 0.00435667)
(2.80918 -1.33741e-08 0.00110452)
(2.75319 -2.85361e-08 -0.000138235)
(2.74181 7.78635e-09 -0.000187661)
(2.74299 -3.89611e-09 -3.64549e-05)
(2.74276 4.02221e-09 3.31704e-06)
(2.7427 -3.93335e-08 2.08821e-06)
(2.7428 -1.46363e-08 4.55321e-07)
(2.7428 -2.29798e-07 3.75216e-07)
(2.7428 3.04738e-07 -4.29992e-07)
(2.74277 -1.07226e-07 1.90202e-07)
(2.74279 2.37831e-07 -2.24812e-07)
(2.74278 -3.91366e-08 1.43559e-07)
(2.74279 1.27302e-07 -4.13407e-08)
(2.74279 1.08753e-07 -2.43185e-08)
(2.7428 -2.32258e-08 1.35112e-07)
(2.74281 -9.24892e-09 3.49487e-08)
(2.74281 3.03647e-08 1.26968e-07)
(2.74281 -1.33162e-09 -1.5151e-07)
(1.76967 -0.00966074 0.00966074)
(2.41203 -0.00404311 0.00404316)
(2.45415 -0.000957026 0.000956946)
(2.39408 0.000149433 -0.000149474)
(2.39189 0.000162822 -0.000162823)
(2.39584 2.59969e-05 -2.59778e-05)
(2.39561 -4.02039e-06 4.0554e-06)
(2.39543 -1.62101e-06 1.51929e-06)
(2.3955 -3.22699e-07 2.44959e-07)
(2.39548 -6.90082e-07 2.51815e-07)
(2.39549 5.36016e-07 -2.97774e-07)
(2.39546 -2.69874e-07 7.40067e-08)
(2.39548 3.72104e-07 -1.12426e-07)
(2.39547 -1.46358e-07 4.31124e-08)
(2.39548 1.78302e-07 4.51195e-08)
(2.39548 2.35406e-07 -3.37285e-08)
(2.39549 -1.25728e-07 8.04939e-08)
(2.3955 -5.5427e-08 4.59353e-08)
(2.39549 9.83445e-08 1.61175e-07)
(2.3955 -1.58347e-08 -1.70932e-07)
(1.07595 -0.00613033 0.00650689)
(1.30497 -0.00216077 0.00197553)
(1.23807 -0.000210466 0.000390985)
(1.20306 0.00018703 -0.000108493)
(1.21763 4.69835e-05 -6.63559e-05)
(1.22142 -8.80096e-06 -3.00527e-06)
(1.22041 -2.08237e-06 1.74504e-06)
(1.22029 4.28068e-07 2.02874e-08)
(1.22037 6.85228e-08 7.75057e-08)
(1.22032 -9.83447e-07 1.80279e-07)
(1.22034 1.50257e-06 -1.93544e-07)
(1.22032 -1.56578e-06 8.9082e-08)
(1.22034 1.53011e-06 -5.78208e-08)
(1.22033 -1.33474e-06 2.47943e-08)
(1.22034 1.23422e-06 5.49775e-08)
(1.22035 -5.14975e-07 -9.67954e-08)
(1.22035 3.14049e-08 1.39883e-07)
(1.22034 2.4436e-08 -7.12263e-08)
(1.22035 1.00174e-07 5.81253e-08)
(1.22035 -8.5445e-08 -5.0135e-08)
(1.14888 0.00593913 -3.90732e-09)
(1.43567 0.00212563 1.04893e-08)
(1.38989 0.000216579 -5.58899e-08)
(1.35323 -0.000200737 7.88649e-09)
(1.36531 -5.42281e-05 -2.72191e-08)
(1.36888 9.55126e-06 6.69052e-08)
(1.3679 2.57039e-06 -4.28091e-08)
(1.36777 -5.11981e-07 -1.81107e-08)
(1.36786 -1.12442e-07 -2.29598e-08)
(1.36781 9.34047e-07 -2.78088e-07)
(1.36783 -1.57481e-06 3.82172e-07)
(1.36781 1.65977e-06 -4.60953e-07)
(1.36782 -1.55737e-06 4.68795e-07)
(1.36782 1.4277e-06 -4.29181e-07)
(1.36782 -1.27931e-06 4.39453e-07)
(1.36784 6.28939e-07 -2.07737e-07)
(1.36783 1.965e-08 8.50939e-08)
(1.36783 -7.04694e-08 -4.33092e-08)
(1.36784 -1.11475e-07 9.54907e-08)
(1.36784 1.13183e-07 -8.71834e-08)
(1.91574 0.0101131 -1.21275e-08)
(2.70065 0.00435667 4.33143e-08)
(2.80918 0.00110453 -5.99741e-09)
(2.75319 -0.000138217 -3.18961e-08)
(2.74181 -0.000187636 -6.31512e-09)
(2.74299 -3.65137e-05 -1.84025e-08)
(2.74276 3.30017e-06 6.78974e-08)
(2.7427 2.12942e-06 -8.73504e-08)
(2.7428 4.56109e-07 -2.43109e-08)
(2.7428 4.92201e-07 -2.95576e-07)
(2.7428 -2.61917e-07 7.1916e-08)
(2.74277 2.62647e-07 -8.41964e-08)
(2.74279 -1.4715e-07 8.3859e-08)
(2.74278 2.16162e-07 -1.67018e-08)
(2.74279 -6.46718e-08 6.45287e-08)
(2.74279 -3.7037e-08 1.78852e-07)
(2.7428 1.32553e-07 -3.39993e-08)
(2.74281 4.0621e-08 -1.24706e-08)
(2.74281 -5.00903e-08 2.152e-07)
(2.74281 3.52005e-08 -1.90029e-07)
(2.08015 -1.65668e-08 -3.2291e-08)
(3.03436 3.85843e-08 5.88986e-08)
(3.22865 -4.44168e-08 -2.74385e-08)
(3.1828 4.62648e-08 4.47669e-08)
(3.16034 4.77452e-08 1.26617e-08)
(3.15698 -1.02579e-08 -1.29563e-09)
(3.15641 -5.45335e-09 6.0831e-08)
(3.15652 -4.25589e-08 -9.59586e-08)
(3.1567 -5.59282e-08 -4.29948e-08)
(3.15672 -2.20068e-07 -3.31508e-07)
(3.15672 2.01316e-07 3.60886e-08)
(3.15669 -5.69712e-08 -7.7077e-08)
(3.1567 1.67528e-07 7.23722e-08)
(3.15669 1.38094e-08 2.4361e-10)
(3.1567 9.26687e-08 7.08321e-08)
(3.1567 1.72373e-07 2.3489e-07)
(3.15672 -4.72408e-08 -5.32843e-08)
(3.15672 2.33714e-08 1.03842e-08)
(3.15672 3.14615e-08 2.09379e-07)
(3.15673 -2.07577e-08 -1.99376e-07)
(1.91574 -0.0101131 -2.39859e-08)
(2.70065 -0.00435667 4.63377e-08)
(2.80918 -0.00110452 9.20212e-08)
(2.75319 0.00013823 -7.54363e-09)
(2.74181 0.000187664 -1.07537e-08)
(2.74299 3.65102e-05 -2.02864e-08)
(2.74276 -3.3208e-06 4.94276e-08)
(2.7427 -2.18482e-06 -7.42289e-08)
(2.7428 -4.97741e-07 -5.09282e-08)
(2.7428 -9.23559e-07 -2.5632e-07)
(2.7428 8.25414e-07 -1.79423e-08)
(2.74277 -5.49457e-07 -3.44877e-08)
(2.74279 6.54382e-07 3.38589e-08)
(2.74278 -3.94785e-07 2.16308e-08)
(2.74279 4.1884e-07 4.74909e-08)
(2.74279 1.40292e-07 1.98036e-07)
(2.7428 -1.19414e-07 -3.92443e-08)
(2.74281 -6.30544e-08 8.64459e-09)
(2.74281 1.17193e-07 2.12063e-07)
(2.74281 -3.58936e-08 -1.91593e-07)
(1.14888 -0.00593913 -1.62884e-08)
(1.43567 -0.00212556 5.28586e-08)
(1.38989 -0.000216563 -5.97936e-08)
(1.35323 0.000200675 8.94431e-09)
(1.36531 5.42113e-05 -3.65131e-08)
(1.36888 -9.57694e-06 4.89062e-08)
(1.3679 -2.54736e-06 -2.55684e-08)
(1.36777 5.05718e-07 -2.18446e-08)
(1.36786 4.62867e-08 -1.63097e-08)
(1.36781 -9.74639e-07 -2.43761e-07)
(1.36783 1.57109e-06 3.17799e-07)
(1.36781 -1.63777e-06 -3.79094e-07)
(1.36783 1.56588e-06 4.08706e-07)
(1.36782 -1.35219e-06 -3.63727e-07)
(1.36782 1.22288e-06 4.02261e-07)
(1.36784 -4.6467e-07 -1.93828e-07)
(1.36783 -8.3296e-08 1.00269e-07)
(1.36783 1.28493e-07 -6.64356e-08)
(1.36784 7.56409e-08 8.73775e-08)
(1.36784 -6.13227e-08 -6.97546e-08)
(1.07595 0.00613032 -0.0065069)
(1.30497 0.00216081 -0.00197548)
(1.23807 0.000210427 -0.000391076)
(1.20306 -0.000187057 0.000108511)
(1.21763 -4.70663e-05 6.62881e-05)
(1.22142 8.93171e-06 3.09179e-06)
(1.22041 2.013e-06 -1.80574e-06)
(1.22029 -4.37858e-07 -5.86686e-08)
(1.22037 -6.83088e-08 -1.13461e-07)
(1.22032 6.5071e-07 -6.4988e-07)
(1.22034 -1.0074e-06 8.89476e-07)
(1.22033 1.01038e-06 -9.0883e-07)
(1.22034 -9.34918e-07 9.27908e-07)
(1.22033 8.16947e-07 -7.98852e-07)
(1.22034 -6.82409e-07 7.74561e-07)
(1.22035 2.40905e-07 -3.30751e-07)
(1.22035 9.7372e-08 5.99397e-08)
(1.22034 -8.68368e-08 -4.91646e-08)
(1.22035 -4.75782e-08 1.13118e-07)
(1.22035 4.16122e-08 -8.25085e-08)
(1.76967 0.00966075 -0.00966075)
(2.41203 0.00404315 -0.00404308)
(2.45415 0.000956958 -0.000956996)
(2.39408 -0.000149467 0.000149412)
(2.39189 -0.000162799 0.000162778)
(2.39584 -2.60388e-05 2.60523e-05)
(2.39561 4.05279e-06 -4.02418e-06)
(2.39543 1.54767e-06 -1.63424e-06)
(2.3955 2.3498e-07 -3.18146e-07)
(2.39548 3.72655e-07 -7.56402e-07)
(2.39549 -1.5816e-07 4.95374e-07)
(2.39546 1.71807e-07 -3.40759e-07)
(2.39548 -6.29695e-08 3.83473e-07)
(2.39547 1.4369e-07 -2.26471e-07)
(2.39548 1.89615e-09 2.33312e-07)
(2.39549 -1.28909e-08 1.99384e-07)
(2.39549 5.74306e-08 -1.10528e-07)
(2.3955 6.34341e-08 -5.65159e-08)
(2.39549 4.90718e-09 2.10569e-07)
(2.3955 -2.78989e-09 -1.44035e-07)
(1.91574 -8.8132e-09 -0.0101131)
(2.70065 2.64811e-08 -0.00435663)
(2.80918 7.99975e-08 -0.00110449)
(2.75319 -1.19518e-08 0.000138218)
(2.74181 4.56056e-10 0.000187623)
(2.74299 -3.72818e-09 3.65456e-05)
(2.74276 -1.33509e-08 -3.30612e-06)
(2.7427 -2.56418e-08 -2.20729e-06)
(2.7428 -4.09888e-08 -4.86897e-07)
(2.7428 -1.90671e-07 -9.97789e-07)
(2.7428 2.14394e-07 7.76901e-07)
(2.74277 -5.84037e-08 -6.05924e-07)
(2.74279 1.88744e-07 6.49631e-07)
(2.74278 -1.88641e-09 -4.52661e-07)
(2.74279 1.11069e-07 4.52641e-07)
(2.74279 1.26471e-07 1.31515e-07)
(2.7428 -2.65253e-08 -1.10856e-07)
(2.74281 1.15812e-08 -6.89867e-08)
(2.74281 2.58808e-08 2.19108e-07)
(2.74281 -2.43695e-09 -1.46596e-07)
(1.76967 -0.00966073 -0.00966074)
(2.41203 -0.00404313 -0.00404311)
(2.45415 -0.00095699 -0.000956967)
(2.39408 0.000149422 0.000149414)
(2.39189 0.000162807 0.000162776)
(2.39584 2.60228e-05 2.60404e-05)
(2.39561 -4.0595e-06 -4.03436e-06)
(2.39543 -1.59728e-06 -1.62415e-06)
(2.3955 -2.9567e-07 -2.91698e-07)
(2.39548 -7.10692e-07 -7.67635e-07)
(2.39548 6.04394e-07 5.2382e-07)
(2.39546 -3.88657e-07 -4.1882e-07)
(2.39548 4.70304e-07 4.3177e-07)
(2.39547 -2.71554e-07 -3.04649e-07)
(2.39548 2.97522e-07 3.03152e-07)
(2.39549 1.04878e-07 1.11384e-07)
(2.39549 -5.80467e-08 -5.94701e-08)
(2.3955 -7.7017e-08 -7.98472e-08)
(2.39549 9.15139e-08 2.00326e-07)
(2.3955 -4.24918e-09 -1.18534e-07)
(1.07595 -0.00613032 -0.0065069)
(1.30497 -0.00216073 -0.0019755)
(1.23807 -0.000210471 -0.00039109)
(1.20306 0.000187013 0.000108488)
(1.21763 4.70375e-05 6.63153e-05)
(1.22142 -8.89091e-06 3.07863e-06)
(1.22041 -2.02009e-06 -1.79146e-06)
(1.22029 4.29144e-07 -5.24135e-08)
(1.22037 4.10075e-08 -1.14354e-07)
(1.22032 -7.46956e-07 -5.35085e-07)
(1.22034 1.10223e-06 6.68079e-07)
(1.22032 -1.11448e-06 -6.64994e-07)
(1.22034 1.05225e-06 6.66411e-07)
(1.22033 -8.76686e-07 -5.66861e-07)
(1.22034 7.40557e-07 5.38158e-07)
(1.22035 -1.89311e-07 -1.85462e-07)
(1.22035 -1.19251e-07 3.71016e-10)
(1.22034 1.16239e-07 -1.57155e-08)
(1.22035 3.39816e-08 7.67196e-08)
(1.22035 -2.00197e-08 -4.60777e-08)
(0.701347 0.00443257 -0.00443257)
(0.771072 0.00113235 -0.00113233)
(0.684846 6.00143e-05 -6.00822e-05)
(0.666169 -9.58061e-05 9.58056e-05)
(0.681582 -1.11085e-05 1.10886e-05)
(0.683657 5.28075e-06 -5.2552e-06)
(0.68269 -1.74568e-07 1.49337e-07)
(0.682695 -2.47481e-07 2.35524e-07)
(0.682754 2.68643e-08 -5.27952e-08)
(0.682705 1.7302e-07 -3.337e-07)
(0.682722 -2.27382e-07 5.03403e-07)
(0.682715 2.05386e-07 -5.32701e-07)
(0.682721 -1.71876e-07 5.25577e-07)
(0.682721 1.46471e-07 -4.54058e-07)
(0.682719 -7.47272e-08 4.07728e-07)
(0.682736 6.59875e-09 -1.88947e-07)
(0.682727 5.03257e-08 4.24256e-08)
(0.682726 -2.92737e-08 -2.05511e-08)
(0.682729 1.93918e-09 4.7578e-08)
(0.68273 8.36171e-09 -3.73913e-08)
(1.07595 0.0065069 -0.00613033)
(1.30497 0.00197552 -0.00216078)
(1.23807 0.000390962 -0.000210493)
(1.20306 -0.000108497 0.00018706)
(1.21763 -6.63387e-05 4.70397e-05)
(1.22142 -3.02162e-06 -8.90631e-06)
(1.22041 1.74683e-06 -2.03421e-06)
(1.22029 2.59092e-08 4.17046e-07)
(1.22037 7.31255e-08 4.47649e-08)
(1.22032 2.32245e-07 -8.89454e-07)
(1.22034 -2.13175e-07 1.33479e-06)
(1.22032 1.60824e-07 -1.40193e-06)
(1.22034 -1.06959e-07 1.35289e-06)
(1.22033 9.44519e-08 -1.1699e-06)
(1.22034 -6.17492e-09 1.06624e-06)
(1.22035 -6.93449e-08 -4.16316e-07)
(1.22035 1.30926e-07 1.00404e-08)
(1.22034 -6.70323e-08 2.91244e-08)
(1.22035 9.80632e-09 9.20197e-08)
(1.22035 -1.74636e-09 -6.40055e-08)
(1.14888 -8.05167e-09 -0.00593913)
(1.43567 3.70922e-08 -0.00212558)
(1.38989 -5.78855e-08 -0.000216568)
(1.35323 2.33609e-08 0.0002007)
(1.36531 -1.86221e-08 5.42367e-05)
(1.36888 1.57785e-09 -9.62814e-06)
(1.3679 -5.63426e-09 -2.52619e-06)
(1.36777 -2.10963e-08 5.01422e-07)
(1.36786 -2.74534e-08 3.56858e-08)
(1.36781 -1.63145e-07 -9.36584e-07)
(1.36783 2.41856e-07 1.50424e-06)
(1.36781 -2.51257e-07 -1.57273e-06)
(1.36783 2.93573e-07 1.49924e-06)
(1.36782 -2.34596e-07 -1.28624e-06)
(1.36782 2.7918e-07 1.15791e-06)
(1.36784 -1.22946e-07 -4.22256e-07)
(1.36783 6.84802e-08 -9.36128e-08)
(1.36783 -5.04534e-08 1.30481e-07)
(1.36784 3.41341e-08 7.61891e-08)
(1.36784 -1.61269e-08 -5.32226e-08)
(1.07595 -0.00650689 -0.00613032)
(1.30497 -0.00197551 -0.00216074)
(1.23807 -0.000391063 -0.000210493)
(1.20306 0.000108508 0.000187006)
(1.21763 6.63108e-05 4.70494e-05)
(1.22142 3.04482e-06 -8.88383e-06)
(1.22041 -1.76519e-06 -2.03206e-06)
(1.22029 -5.77759e-08 4.33269e-07)
(1.22037 -1.16205e-07 3.94067e-08)
(1.22032 -4.90101e-07 -7.57683e-07)
(1.22034 6.10936e-07 1.12048e-06)
(1.22032 -5.68485e-07 -1.14686e-06)
(1.22034 5.78064e-07 1.08392e-06)
(1.22033 -4.66314e-07 -9.10423e-07)
(1.22034 4.426e-07 7.7396e-07)
(1.22035 -1.15355e-07 -2.16262e-07)
(1.22035 -3.44521e-08 -1.02182e-07)
(1.22034 -8.33919e-10 1.09112e-07)
(1.22035 4.51518e-08 4.26163e-08)
(1.22035 -1.57728e-08 -2.6631e-08)
(0.701347 -0.00443256 -0.00443256)
(0.771072 -0.00113238 -0.00113239)
(0.684846 -6.00498e-05 -6.00677e-05)
(0.666169 9.58082e-05 9.58034e-05)
(0.681582 1.11074e-05 1.11187e-05)
(0.683657 -5.26845e-06 -5.26213e-06)
(0.68269 1.61244e-07 1.48631e-07)
(0.682695 2.38837e-07 2.43829e-07)
(0.682754 -4.16857e-08 -4.44643e-08)
(0.682704 -2.67939e-07 -2.74129e-07)
(0.682722 3.79386e-07 3.96654e-07)
(0.682715 -3.73952e-07 -4.03183e-07)
(0.682721 3.56126e-07 3.85132e-07)
(0.682721 -2.96414e-07 -3.28102e-07)
(0.682719 2.39204e-07 2.70387e-07)
(0.682737 -7.73826e-08 -1.05351e-07)
(0.682727 -1.6672e-08 -7.47613e-10)
(0.682726 1.14515e-08 5.18442e-09)
(0.682729 1.3351e-08 1.96738e-08)
(0.68273 -1.0302e-08 -1.47386e-08)
)
;

boundaryField
{
    inlet
    {
        type            fixedValue;
        value           uniform (1.667 0 0);
    }
    outlet
    {
        type            zeroGradient;
    }
    Walls
    {
        type            noSlip;
    }
}


// ************************************************************************* //
