/*--------------------------------*- C++ -*----------------------------------*\
  =========                 |
  \\      /  F ield         | OpenFOAM: The Open Source CFD Toolbox
   \\    /   O peration     | Website:  https://openfoam.org
    \\  /    A nd           | Version:  13
     \\/     M anipulation  |
\*---------------------------------------------------------------------------*/
FoamFile
{
    format      ascii;
    class       surfaceScalarField;
    location    "25";
    object      phi;
}
// * * * * * * * * * * * * * * * * * * * * * * * * * * * * * * * * * * * * * //

dimensions      [0 3 -1 0 0 0 0];

internalField   nonuniform List<scalar> 
235264
(
6.31911e-15
2.93991e-14
2.93992e-14
3.92865e-15
1.19524e-15
1.19524e-15
4.64593e-15
-3.58592e-16
-3.58592e-16
4.03502e-15
3.05415e-16
3.05396e-16
4.44983e-15
-2.07272e-16
-2.0725e-16
4.15869e-15
1.45477e-16
1.4547e-16
4.36648e-15
-1.03936e-16
-1.03937e-16
4.21957e-15
7.33297e-17
7.33472e-17
4.31872e-15
-4.98679e-17
-4.98918e-17
4.2565e-15
3.11818e-17
3.11905e-17
4.29126e-15
-1.74975e-17
-1.75009e-17
4.27394e-15
8.93515e-18
8.95235e-18
4.28145e-15
-3.80403e-18
-3.81602e-18
4.27855e-15
1.53519e-18
1.53596e-18
4.27959e-15
-4.97558e-19
-4.96758e-19
4.27932e-15
1.78214e-19
1.728e-19
4.27951e-15
-7.59057e-20
-7.20164e-20
4.27935e-15
8.45831e-20
8.37992e-20
4.27954e-15
-8.50639e-20
-8.48093e-20
4.27938e-15
7.75133e-20
7.4513e-20
4.27956e-15
-8.25716e-20
-7.9756e-20
4.27936e-15
9.76894e-20
9.72751e-20
4.27957e-15
-9.93285e-20
-9.90227e-20
4.27938e-15
8.90679e-20
8.68823e-20
4.27957e-15
-8.8124e-20
-8.60057e-20
4.27937e-15
9.55223e-20
9.52186e-20
4.27957e-15
-9.31949e-20
-9.29737e-20
4.27939e-15
8.20632e-20
8.05288e-20
4.27956e-15
-7.80073e-20
-7.6526e-20
4.27939e-15
8.11028e-20
8.08764e-20
4.27956e-15
-7.75478e-20
-7.73977e-20
4.27941e-15
6.77484e-20
6.67493e-20
4.27955e-15
-6.30799e-20
-6.21206e-20
4.27941e-15
6.47274e-20
6.45616e-20
4.27954e-15
-6.11555e-20
-6.10367e-20
4.27943e-15
5.36695e-20
5.29818e-20
4.27954e-15
-5.01792e-20
-4.95204e-20
4.27943e-15
5.26575e-20
5.25182e-20
4.27953e-15
-5.05371e-20
-5.04376e-20
4.27944e-15
4.53775e-20
4.49164e-20
4.27953e-15
-4.31838e-20
-4.27427e-20
4.27944e-15
4.66082e-20
4.6487e-20
4.27953e-15
-4.52433e-20
-4.51394e-20
4.27944e-15
4.1542e-20
4.11658e-20
4.27953e-15
-4.06243e-20
-4.02625e-20
4.27944e-15
4.54032e-20
4.52791e-20
4.27953e-15
-4.52653e-20
-4.51596e-20
4.27944e-15
4.25527e-20
4.2254e-20
4.27953e-15
-4.23487e-20
-4.20603e-20
4.27943e-15
4.76923e-20
4.75688e-20
4.27953e-15
-4.76633e-20
-4.75431e-20
4.27944e-15
4.50514e-20
4.4753e-20
4.27954e-15
-4.52798e-20
-4.49893e-20
4.27943e-15
5.12972e-20
5.11623e-20
4.27954e-15
-5.18731e-20
-5.1748e-20
4.27943e-15
4.93432e-20
4.9078e-20
4.27954e-15
-4.96688e-20
-4.94099e-20
4.27943e-15
5.56666e-20
5.55292e-20
4.27954e-15
-5.58863e-20
-5.57472e-20
4.27943e-15
5.28864e-20
5.26026e-20
4.27954e-15
-5.31991e-20
-5.29208e-20
4.27942e-15
5.94451e-20
5.92964e-20
4.27955e-15
-6.00037e-20
-5.98621e-20
4.27943e-15
5.68665e-20
5.66089e-20
4.27955e-15
-5.7074e-20
-5.6821e-20
4.27942e-15
6.30595e-20
6.29097e-20
4.27955e-15
-6.31307e-20
-6.29777e-20
4.27942e-15
5.94695e-20
5.91919e-20
4.27955e-15
-5.95792e-20
-5.9306e-20
4.27941e-15
6.57041e-20
6.55446e-20
4.27955e-15
-6.60938e-20
-6.59406e-20
4.27942e-15
6.23674e-20
6.21162e-20
4.27955e-15
-6.23797e-20
-6.21324e-20
4.27941e-15
6.82105e-20
6.80516e-20
4.27955e-15
-6.81242e-20
-6.79615e-20
4.27942e-15
6.39672e-20
6.3696e-20
4.27955e-15
-6.39182e-20
-6.36509e-20
4.27941e-15
6.99055e-20
6.97381e-20
4.27955e-15
-7.01866e-20
-7.00251e-20
4.27941e-15
6.60762e-20
6.5831e-20
4.27955e-15
-6.59805e-20
-6.57387e-20
4.27941e-15
7.16978e-20
7.15321e-20
4.27955e-15
-7.15371e-20
-7.1367e-20
4.27941e-15
6.70815e-20
6.68152e-20
4.27955e-15
-6.69685e-20
-6.67057e-20
4.2794e-15
7.28775e-20
7.2704e-20
4.27955e-15
-7.31264e-20
-7.29585e-20
4.27941e-15
6.87915e-20
6.855e-20
4.27956e-15
-6.86644e-20
-6.8426e-20
4.2794e-15
7.43234e-20
7.41522e-20
4.27956e-15
-7.41482e-20
-7.39723e-20
4.27941e-15
6.95149e-20
6.92508e-20
4.27956e-15
-6.9392e-20
-6.9131e-20
4.2794e-15
7.52633e-20
7.50848e-20
4.27956e-15
-7.55198e-20
-7.53466e-20
4.27941e-15
7.10456e-20
7.08052e-20
4.27956e-15
-7.09221e-20
-7.06845e-20
4.2794e-15
7.65514e-20
7.63756e-20
4.27956e-15
-7.63881e-20
-7.62072e-20
4.27941e-15
7.16375e-20
7.13732e-20
4.27956e-15
-7.15267e-20
-7.12651e-20
4.2794e-15
7.73772e-20
7.71943e-20
4.27956e-15
-7.76542e-20
-7.74764e-20
4.27941e-15
7.30797e-20
7.28384e-20
4.27956e-15
-7.29693e-20
-7.27304e-20
4.2794e-15
7.85771e-20
7.83972e-20
4.27956e-15
-7.84301e-20
-7.82449e-20
4.2794e-15
7.3588e-20
7.33219e-20
4.27956e-15
-7.34901e-20
-7.32265e-20
4.2794e-15
7.93211e-20
7.91345e-20
4.27956e-15
-7.96167e-20
-7.9435e-20
4.2794e-15
7.49593e-20
7.47159e-20
4.27956e-15
-7.48598e-20
-7.46187e-20
4.27939e-15
8.04456e-20
8.02622e-20
4.27956e-15
-8.03119e-20
-8.01229e-20
4.2794e-15
7.53924e-20
7.51238e-20
4.27956e-15
-7.53055e-20
-7.50392e-20
4.27939e-15
8.11157e-20
8.09257e-20
4.27956e-15
-8.14253e-20
-8.12401e-20
4.2794e-15
7.66949e-20
7.6449e-20
4.27956e-15
-7.66027e-20
-7.63589e-20
4.27939e-15
8.21643e-20
8.19779e-20
4.27956e-15
-8.20386e-20
-8.18464e-20
4.2794e-15
7.70496e-20
7.67781e-20
4.27956e-15
-7.69685e-20
-7.66993e-20
4.27939e-15
8.27551e-20
8.25622e-20
4.27956e-15
-8.30734e-20
-8.28853e-20
4.2794e-15
7.82772e-20
7.80286e-20
4.27956e-15
-7.81884e-20
-7.79418e-20
4.27939e-15
8.37244e-20
8.35353e-20
4.27956e-15
-8.36031e-20
-8.34081e-20
4.2794e-15
7.85523e-20
7.82781e-20
4.27956e-15
-7.84756e-20
-7.82036e-20
4.27939e-15
8.42386e-20
8.40433e-20
4.27956e-15
-8.45626e-20
-8.4372e-20
4.2794e-15
7.97077e-20
7.94566e-20
4.27956e-15
-7.96204e-20
-7.93712e-20
4.27939e-15
8.51308e-20
8.49395e-20
4.27956e-15
-8.50109e-20
-8.48135e-20
4.2794e-15
7.99042e-20
7.96274e-20
4.27956e-15
-7.98288e-20
-7.95541e-20
4.27939e-15
8.55678e-20
8.53704e-20
4.27956e-15
-8.58948e-20
-8.5702e-20
4.27939e-15
8.09873e-20
8.07339e-20
4.27956e-15
-8.08998e-20
-8.06482e-20
4.27939e-15
8.63856e-20
8.61924e-20
4.27956e-15
-8.62658e-20
-8.60664e-20
4.27939e-15
8.11101e-20
8.0831e-20
4.27956e-15
-8.10362e-20
-8.07591e-20
4.27939e-15
8.67531e-20
8.65539e-20
4.27956e-15
-8.7082e-20
-8.68873e-20
4.27939e-15
8.21275e-20
8.18721e-20
4.27956e-15
-8.20389e-20
-8.17853e-20
4.27939e-15
8.75014e-20
8.73065e-20
4.27956e-15
-8.73805e-20
-8.71793e-20
4.27939e-15
8.21805e-20
8.18994e-20
4.27956e-15
-8.21063e-20
-8.18271e-20
4.27938e-15
8.78018e-20
8.76009e-20
4.27957e-15
-8.8131e-20
-8.79346e-20
4.27939e-15
8.31343e-20
8.28771e-20
4.27957e-15
-8.30436e-20
-8.27881e-20
4.27938e-15
8.84837e-20
8.82874e-20
4.27957e-15
-8.83613e-20
-8.81586e-20
4.27939e-15
8.31228e-20
8.284e-20
4.27957e-15
-8.30484e-20
-8.27675e-20
4.27938e-15
8.87244e-20
8.85222e-20
4.27957e-15
-8.90548e-20
-8.88571e-20
4.27939e-15
8.40229e-20
8.37643e-20
4.27957e-15
-8.39319e-20
-8.3675e-20
4.27938e-15
8.9353e-20
8.91554e-20
4.27957e-15
-8.923e-20
-8.9026e-20
4.27939e-15
8.3959e-20
8.36748e-20
4.27957e-15
-8.38848e-20
-8.36024e-20
4.27938e-15
8.95441e-20
8.93407e-20
4.27957e-15
-8.98765e-20
-8.96775e-20
4.27939e-15
8.48161e-20
8.45562e-20
4.27957e-15
-8.47258e-20
-8.44677e-20
4.27938e-15
9.01313e-20
8.99327e-20
4.27957e-15
-9.00078e-20
-8.98026e-20
4.27939e-15
8.47089e-20
8.44233e-20
4.27957e-15
-8.46348e-20
-8.43511e-20
4.27938e-15
9.02793e-20
9.00749e-20
4.27957e-15
-9.0612e-20
-9.0412e-20
4.27939e-15
8.55241e-20
8.5263e-20
4.27957e-15
-8.54323e-20
-8.51729e-20
4.27938e-15
9.08216e-20
9.0622e-20
4.27957e-15
-9.06961e-20
-9.04899e-20
4.27939e-15
8.53719e-20
8.50851e-20
4.27957e-15
-8.52996e-20
-8.50147e-20
4.27938e-15
9.09311e-20
9.07258e-20
4.27957e-15
-9.1262e-20
-9.10611e-20
4.27939e-15
8.61464e-20
8.58843e-20
4.27957e-15
-8.60499e-20
-8.57895e-20
4.27938e-15
9.14223e-20
9.12218e-20
4.27957e-15
-9.12922e-20
-9.10852e-20
4.27939e-15
8.59446e-20
8.56569e-20
4.27957e-15
-8.58718e-20
-8.55859e-20
4.27938e-15
9.14919e-20
9.12858e-20
4.27957e-15
-9.18203e-20
-9.16186e-20
4.27939e-15
8.66831e-20
8.64203e-20
4.27957e-15
-8.65835e-20
-8.63223e-20
4.27938e-15
9.19456e-20
9.17444e-20
4.27957e-15
-9.18133e-20
-9.16055e-20
4.27939e-15
8.64498e-20
8.61615e-20
4.27957e-15
-8.63777e-20
-8.60913e-20
4.27938e-15
9.1994e-20
9.17872e-20
4.27957e-15
-9.2322e-20
-9.21195e-20
4.27939e-15
8.71708e-20
8.69075e-20
4.27957e-15
-8.70715e-20
-8.68098e-20
4.27938e-15
9.2433e-20
9.22312e-20
4.27957e-15
-9.23037e-20
-9.20952e-20
4.27939e-15
8.69312e-20
8.66424e-20
4.27957e-15
-8.68636e-20
-8.65765e-20
4.27938e-15
9.24819e-20
9.22745e-20
4.27957e-15
-9.28101e-20
-9.2607e-20
4.27939e-15
8.76421e-20
8.73783e-20
4.27957e-15
-8.75385e-20
-8.72761e-20
4.27938e-15
9.28962e-20
9.26938e-20
4.27957e-15
-9.27684e-20
-9.25593e-20
4.27939e-15
8.73808e-20
8.70915e-20
4.27957e-15
-8.73131e-20
-8.70255e-20
4.27938e-15
9.29282e-20
9.27203e-20
4.27957e-15
-9.3263e-20
-9.30593e-20
4.27939e-15
8.80867e-20
8.78227e-20
4.27957e-15
-8.79923e-20
-8.77297e-20
4.27938e-15
9.33491e-20
9.31462e-20
4.27957e-15
-9.32264e-20
-9.30168e-20
4.27939e-15
8.78225e-20
8.75334e-20
4.27957e-15
-8.77546e-20
-8.74672e-20
4.27938e-15
9.33646e-20
9.31564e-20
4.27957e-15
-9.37165e-20
-9.35124e-20
4.27939e-15
8.855e-20
8.82864e-20
4.27957e-15
-8.84857e-20
-8.82235e-20
4.27938e-15
9.3856e-20
9.36529e-20
4.27957e-15
-9.37437e-20
-9.35337e-20
4.27939e-15
8.83306e-20
8.80414e-20
4.27957e-15
-8.82688e-20
-8.79812e-20
4.27938e-15
9.38767e-20
9.36681e-20
4.27957e-15
-9.4223e-20
-9.40184e-20
4.27938e-15
8.90225e-20
8.87576e-20
4.27957e-15
-8.89411e-20
-8.86777e-20
4.27938e-15
9.42882e-20
9.40847e-20
4.27957e-15
-9.41577e-20
-9.39471e-20
4.27938e-15
8.87034e-20
8.8412e-20
4.27957e-15
-8.86324e-20
-8.83428e-20
4.27938e-15
9.42026e-20
9.39934e-20
4.27957e-15
-9.44918e-20
-9.42867e-20
4.27938e-15
8.91654e-20
8.88987e-20
4.27957e-15
-8.89882e-20
-8.8723e-20
4.27938e-15
9.42311e-20
9.40271e-20
4.27957e-15
-9.40734e-20
-9.38629e-20
4.27938e-15
8.85806e-20
8.82902e-20
4.27957e-15
-8.85354e-20
-8.82468e-20
4.27938e-15
9.40813e-20
9.38722e-20
4.27957e-15
-9.43853e-20
-9.41808e-20
4.27938e-15
8.90599e-20
8.87976e-20
4.27957e-15
-8.89015e-20
-8.86407e-20
4.27938e-15
9.41301e-20
9.39267e-20
4.27957e-15
-9.39645e-20
-9.37547e-20
4.27939e-15
8.84459e-20
8.8162e-20
4.27957e-15
-8.83299e-20
-8.80475e-20
4.27938e-15
9.38675e-20
9.36595e-20
4.27957e-15
-9.42683e-20
-9.40645e-20
4.27938e-15
8.91733e-20
8.89167e-20
4.27957e-15
-8.92499e-20
-8.89945e-20
4.27938e-15
9.47204e-20
9.45179e-20
4.27957e-15
-9.47364e-20
-9.45266e-20
4.27938e-15
8.94244e-20
8.91405e-20
4.27957e-15
-8.94681e-20
-8.91857e-20
4.27938e-15
9.51818e-20
9.49739e-20
4.27957e-15
-9.56082e-20
-9.5403e-20
4.27938e-15
9.0424e-20
9.01571e-20
4.27957e-15
-9.03282e-20
-9.00627e-20
4.27938e-15
9.57036e-20
9.55e-20
4.27957e-15
-9.56151e-20
-9.54031e-20
4.27938e-15
9.01367e-20
8.98346e-20
4.27957e-15
-9.00634e-20
-8.97631e-20
4.27937e-15
9.55982e-20
9.5388e-20
4.27957e-15
-9.58331e-20
-9.56263e-20
4.27938e-15
9.02935e-20
9.00114e-20
4.27957e-15
-8.99825e-20
-8.97019e-20
4.27938e-15
9.49755e-20
9.47699e-20
4.27957e-15
-9.46385e-20
-9.44272e-20
4.27938e-15
8.87574e-20
8.84545e-20
4.27957e-15
-8.84963e-20
-8.81951e-20
4.27938e-15
9.36751e-20
9.3465e-20
4.27957e-15
-9.39352e-20
-9.37321e-20
4.27938e-15
8.85883e-20
8.83234e-20
4.27957e-15
-8.8787e-20
-8.85237e-20
4.27938e-15
9.41663e-20
9.39631e-20
4.27957e-15
-9.43877e-20
-9.41805e-20
4.27938e-15
8.93375e-20
8.90575e-20
4.27957e-15
-8.98064e-20
-8.95279e-20
4.27938e-15
9.5506e-20
9.52998e-20
4.27957e-15
-9.51251e-20
-9.49177e-20
4.27939e-15
8.84844e-20
8.82079e-20
4.27957e-15
-8.6403e-20
-8.61258e-20
4.27938e-15
9.05384e-20
9.03356e-20
4.27957e-15
-9.01511e-20
-8.99415e-20
4.27939e-15
8.52009e-20
8.48998e-20
4.27957e-15
-8.60349e-20
-8.57368e-20
4.27938e-15
9.21142e-20
9.19056e-20
4.27957e-15
-9.26624e-20
-9.24551e-20
4.27939e-15
8.71902e-20
8.69003e-20
4.27957e-15
-8.68959e-20
-8.66085e-20
4.27938e-15
9.12463e-20
9.10409e-20
4.27956e-15
-8.94059e-20
-8.91959e-20
4.27939e-15
8.06993e-20
8.04065e-20
4.27956e-15
-7.69929e-20
-7.66982e-20
4.27939e-15
7.96723e-20
7.94644e-20
4.27956e-15
-8.12431e-20
-8.10575e-20
4.27939e-15
8.13478e-20
8.11608e-20
4.27958e-15
-9.06533e-20
-9.04784e-20
4.27937e-15
1.03265e-19
1.03074e-19
4.27958e-15
-1.05067e-19
-1.04848e-19
4.27938e-15
9.64775e-20
9.617e-20
4.27957e-15
-8.80139e-20
-8.76985e-20
4.27939e-15
8.74966e-20
8.73056e-20
4.27955e-15
-8.12659e-20
-8.1028e-20
7.72217e-20
7.69625e-20
1.1914e-14
3.52652e-14
4.73376e-14
9.01773e-15
1.93963e-15
2.15193e-15
9.67383e-15
-4.15662e-16
-5.98757e-16
9.00913e-15
4.37126e-16
5.32745e-16
9.45758e-15
-2.93377e-16
-3.61558e-16
9.1409e-15
2.07106e-16
2.54493e-16
9.3689e-15
-1.50367e-16
-1.81799e-16
9.20657e-15
1.07604e-16
1.27359e-16
9.31606e-15
-7.59964e-17
-8.51164e-17
9.24781e-15
4.83042e-17
5.1557e-17
9.28494e-15
-2.77235e-17
-2.75741e-17
9.26716e-15
1.51086e-17
1.31919e-17
9.27437e-15
-6.21639e-18
-5.05087e-18
9.27183e-15
2.75085e-18
1.80063e-18
9.27267e-15
-7.26889e-19
-4.68218e-19
9.27258e-15
3.19653e-19
1.96749e-19
9.27274e-15
-1.16649e-20
-1.17694e-19
9.27259e-15
8.47139e-20
1.83491e-19
9.2728e-15
-5.14871e-20
-1.91545e-19
9.27264e-15
3.66911e-20
1.81451e-19
9.27283e-15
-3.62523e-20
-1.90156e-19
9.27261e-15
8.4463e-20
2.17148e-19
9.27284e-15
-8.54425e-20
-2.16902e-19
9.27264e-15
5.97824e-20
1.95584e-19
9.27284e-15
-5.93984e-20
-1.91973e-19
9.27263e-15
9.15181e-20
2.04372e-19
9.27285e-15
-8.83992e-20
-1.97199e-19
9.27266e-15
6.35752e-20
1.74085e-19
9.27284e-15
-5.9732e-20
-1.6456e-19
9.27266e-15
8.23683e-20
1.69209e-19
9.27284e-15
-7.86247e-20
-1.59768e-19
9.27268e-15
5.82762e-20
1.39125e-19
9.27283e-15
-5.23811e-20
-1.29109e-19
9.27268e-15
6.88228e-20
1.32347e-19
9.27282e-15
-6.25658e-20
-1.24612e-19
9.2727e-15
4.61132e-20
1.09353e-19
9.27282e-15
-4.04011e-20
-1.02246e-19
9.2727e-15
5.61748e-20
1.07208e-19
9.27282e-15
-5.21067e-20
-1.02302e-19
9.27271e-15
3.99915e-20
9.16277e-20
9.27281e-15
-3.48315e-20
-8.75177e-20
9.27271e-15
4.98592e-20
9.48947e-20
9.27281e-15
-4.48012e-20
-9.26609e-20
9.27271e-15
3.41693e-20
8.56149e-20
9.27281e-15
-3.01209e-20
-8.42221e-20
9.27271e-15
4.69787e-20
9.36792e-20
9.27281e-15
-4.45874e-20
-9.33349e-20
9.27271e-15
3.56789e-20
8.81002e-20
9.27281e-15
-3.2327e-20
-8.82207e-20
9.27271e-15
4.90941e-20
9.89487e-20
9.27282e-15
-4.55811e-20
-9.96219e-20
9.27271e-15
3.58647e-20
9.52056e-20
9.27282e-15
-3.31864e-20
-9.61638e-20
9.2727e-15
5.14962e-20
1.07481e-19
9.27282e-15
-5.02889e-20
-1.08602e-19
9.27271e-15
4.09208e-20
1.04098e-19
9.27282e-15
-3.85465e-20
-1.05235e-19
9.2727e-15
5.62355e-20
1.16679e-19
9.27282e-15
-5.35373e-20
-1.17789e-19
9.2727e-15
4.25847e-20
1.12892e-19
9.27283e-15
-4.04906e-20
-1.13937e-19
9.27269e-15
5.92039e-20
1.2521e-19
9.27283e-15
-5.85492e-20
-1.26199e-19
9.2727e-15
4.77479e-20
1.20712e-19
9.27283e-15
-4.57414e-20
-1.21525e-19
9.27269e-15
6.34548e-20
1.32567e-19
9.27283e-15
-6.11096e-20
-1.33286e-19
9.27269e-15
4.87557e-20
1.27252e-19
9.27283e-15
-4.68867e-20
-1.27812e-19
9.27268e-15
6.54113e-20
1.38568e-19
9.27283e-15
-6.5033e-20
-1.3913e-19
9.27269e-15
5.30451e-20
1.32606e-19
9.27283e-15
-5.12065e-20
-1.32965e-19
9.27268e-15
6.8611e-20
1.43517e-19
9.27283e-15
-6.64641e-20
-1.43857e-19
9.27269e-15
5.313e-20
1.36944e-19
9.27283e-15
-5.14027e-20
-1.37138e-19
9.27268e-15
6.96049e-20
1.47499e-19
9.27284e-15
-6.94308e-20
-1.47787e-19
9.27269e-15
5.66871e-20
1.40577e-19
9.27284e-15
-5.49911e-20
-1.40681e-19
9.27267e-15
7.20763e-20
1.50938e-19
9.27284e-15
-7.01018e-20
-1.5109e-19
9.27268e-15
5.61662e-20
1.43648e-19
9.27284e-15
-5.45865e-20
-1.43684e-19
9.27267e-15
7.25204e-20
1.53844e-19
9.27284e-15
-7.25403e-20
-1.5403e-19
9.27268e-15
5.93315e-20
1.46419e-19
9.27284e-15
-5.77847e-20
-1.46437e-19
9.27267e-15
7.46299e-20
1.56556e-19
9.27284e-15
-7.2821e-20
-1.56657e-19
9.27268e-15
5.84959e-20
1.48902e-19
9.27284e-15
-5.70629e-20
-1.48898e-19
9.27267e-15
7.48069e-20
1.58968e-19
9.27284e-15
-7.50075e-20
-1.59144e-19
9.27268e-15
6.14781e-20
1.51284e-19
9.27284e-15
-6.00748e-20
-1.51292e-19
9.27267e-15
7.67536e-20
1.61347e-19
9.27284e-15
-7.50984e-20
-1.61455e-19
9.27268e-15
6.04843e-20
1.53493e-19
9.27284e-15
-5.91914e-20
-1.53497e-19
9.27266e-15
7.68061e-20
1.6352e-19
9.27284e-15
-7.71695e-20
-1.63715e-19
9.27267e-15
6.33837e-20
1.55675e-19
9.27284e-15
-6.21104e-20
-1.55694e-19
9.27266e-15
7.86708e-20
1.65705e-19
9.27284e-15
-7.71487e-20
-1.65834e-19
9.27267e-15
6.22886e-20
1.5771e-19
9.27284e-15
-6.11167e-20
-1.57726e-19
9.27266e-15
7.86364e-20
1.67706e-19
9.27284e-15
-7.91383e-20
-1.67921e-19
9.27267e-15
6.51257e-20
1.5973e-19
9.27284e-15
-6.39644e-20
-1.59758e-19
9.27266e-15
8.04347e-20
1.69724e-19
9.27284e-15
-7.90255e-20
-1.69869e-19
9.27267e-15
6.39451e-20
1.61606e-19
9.27284e-15
-6.28806e-20
-1.61632e-19
9.27266e-15
8.03277e-20
1.71566e-19
9.27284e-15
-8.0948e-20
-1.71793e-19
9.27267e-15
6.67288e-20
1.63467e-19
9.27284e-15
-6.56642e-20
-1.63497e-19
9.27266e-15
8.20614e-20
1.73415e-19
9.27284e-15
-8.07457e-20
-1.73567e-19
9.27267e-15
6.54626e-20
1.65179e-19
9.27284e-15
-6.44885e-20
-1.65205e-19
9.27266e-15
8.18749e-20
1.75087e-19
9.27284e-15
-8.25941e-20
-1.75318e-19
9.27267e-15
6.81854e-20
1.66871e-19
9.27284e-15
-6.72033e-20
-1.66897e-19
9.27265e-15
8.35385e-20
1.76762e-19
9.27284e-15
-8.23017e-20
-1.76915e-19
9.27267e-15
6.68353e-20
1.68416e-19
9.27284e-15
-6.5942e-20
-1.6844e-19
9.27265e-15
8.32779e-20
1.78271e-19
9.27284e-15
-8.40828e-20
-1.785e-19
9.27266e-15
6.95027e-20
1.69944e-19
9.27284e-15
-6.8593e-20
-1.69963e-19
9.27265e-15
8.48743e-20
1.79776e-19
9.27284e-15
-8.37034e-20
-1.79925e-19
9.27266e-15
6.80702e-20
1.71325e-19
9.27284e-15
-6.72452e-20
-1.71342e-19
9.27265e-15
8.45359e-20
1.81122e-19
9.27284e-15
-8.54136e-20
-1.81345e-19
9.27266e-15
7.06787e-20
1.72692e-19
9.27284e-15
-6.98317e-20
-1.72702e-19
9.27265e-15
8.60653e-20
1.82465e-19
9.27284e-15
-8.49515e-20
-1.82607e-19
9.27266e-15
6.91699e-20
1.73919e-19
9.27284e-15
-6.84071e-20
-1.7393e-19
9.27265e-15
8.56589e-20
1.83663e-19
9.27285e-15
-8.66007e-20
-1.83879e-19
9.27266e-15
7.17276e-20
1.75139e-19
9.27285e-15
-7.09356e-20
-1.75139e-19
9.27265e-15
8.71261e-20
1.84855e-19
9.27285e-15
-8.60609e-20
-1.84989e-19
9.27266e-15
7.01463e-20
1.76221e-19
9.27285e-15
-6.94365e-20
-1.76224e-19
9.27265e-15
8.66518e-20
1.85911e-19
9.27285e-15
-8.76486e-20
-1.86118e-19
9.27266e-15
7.26523e-20
1.773e-19
9.27285e-15
-7.1908e-20
-1.77288e-19
9.27265e-15
8.80582e-20
1.86959e-19
9.27285e-15
-8.70364e-20
-1.87085e-19
9.27266e-15
7.10057e-20
1.78248e-19
9.27285e-15
-7.03445e-20
-1.78242e-19
9.27265e-15
8.75265e-20
1.87888e-19
9.27285e-15
-8.85744e-20
-1.88088e-19
9.27266e-15
7.34739e-20
1.79204e-19
9.27285e-15
-7.27744e-20
-1.79184e-19
9.27265e-15
8.88889e-20
1.88818e-19
9.27285e-15
-8.79055e-20
-1.88938e-19
9.27266e-15
7.17754e-20
1.80041e-19
9.27285e-15
-7.11558e-20
-1.8003e-19
9.27264e-15
8.83079e-20
1.89641e-19
9.27285e-15
-8.94001e-20
-1.89839e-19
9.27266e-15
7.42108e-20
1.80901e-19
9.27285e-15
-7.35492e-20
-1.80878e-19
9.27264e-15
8.96331e-20
1.90482e-19
9.27285e-15
-8.86797e-20
-1.90599e-19
9.27266e-15
7.24606e-20
1.81654e-19
9.27285e-15
-7.18752e-20
-1.81638e-19
9.27264e-15
8.90021e-20
1.91219e-19
9.27285e-15
-9.01302e-20
-1.91411e-19
9.27266e-15
7.48564e-20
1.82425e-19
9.27285e-15
-7.42261e-20
-1.82394e-19
9.27264e-15
9.02816e-20
1.91966e-19
9.27285e-15
-8.93556e-20
-1.92075e-19
9.27266e-15
7.30562e-20
1.83086e-19
9.27285e-15
-7.25084e-20
-1.83068e-19
9.27264e-15
8.96153e-20
1.9262e-19
9.27285e-15
-9.07767e-20
-1.92802e-19
9.27265e-15
7.54253e-20
1.83764e-19
9.27285e-15
-7.48227e-20
-1.83717e-19
9.27264e-15
9.08506e-20
1.93254e-19
9.27285e-15
-8.99481e-20
-1.93348e-19
9.27266e-15
7.35815e-20
1.84316e-19
9.27285e-15
-7.30646e-20
-1.84291e-19
9.27264e-15
9.01537e-20
1.93819e-19
9.27285e-15
-9.13408e-20
-1.93989e-19
9.27265e-15
7.59308e-20
1.84909e-19
9.27285e-15
-7.53499e-20
-1.84852e-19
9.27264e-15
9.13601e-20
1.94367e-19
9.27285e-15
-9.04754e-20
-1.94454e-19
9.27265e-15
7.4061e-20
1.85393e-19
9.27285e-15
-7.35639e-20
-1.85367e-19
9.27264e-15
9.06454e-20
1.94887e-19
9.27285e-15
-9.18476e-20
-1.95054e-19
9.27265e-15
7.63929e-20
1.8595e-19
9.27285e-15
-7.58256e-20
-1.85892e-19
9.27264e-15
9.18339e-20
1.95407e-19
9.27285e-15
-9.09649e-20
-1.95499e-19
9.27265e-15
7.45118e-20
1.86424e-19
9.27285e-15
-7.40302e-20
-1.86407e-19
9.27264e-15
9.11157e-20
1.95933e-19
9.27285e-15
-9.23268e-20
-1.96102e-19
9.27265e-15
7.68189e-20
1.86969e-19
9.27285e-15
-7.62562e-20
-1.86902e-19
9.27264e-15
9.2262e-20
1.96409e-19
9.27285e-15
-9.14119e-20
-1.96503e-19
9.27265e-15
7.49095e-20
1.874e-19
9.27285e-15
-7.44473e-20
-1.87379e-19
9.27264e-15
9.15316e-20
1.96895e-19
9.27285e-15
-9.2774e-20
-1.97071e-19
9.27265e-15
7.72297e-20
1.87921e-19
9.27285e-15
-7.67042e-20
-1.87868e-19
9.27264e-15
9.27083e-20
1.97371e-19
9.27285e-15
-9.18894e-20
-1.97469e-19
9.27265e-15
7.53371e-20
1.88333e-19
9.27285e-15
-7.48988e-20
-1.88306e-19
9.27264e-15
9.19698e-20
1.97809e-19
9.27285e-15
-9.32598e-20
-1.98013e-19
9.27265e-15
7.7702e-20
1.88884e-19
9.27285e-15
-7.72329e-20
-1.88888e-19
9.27264e-15
9.32462e-20
1.98424e-19
9.27285e-15
-9.24401e-20
-1.98548e-19
9.27265e-15
7.5824e-20
1.8941e-19
9.27285e-15
-7.53919e-20
-1.89402e-19
9.27264e-15
9.24557e-20
1.9891e-19
9.27285e-15
-9.37401e-20
-1.99112e-19
9.27265e-15
7.80648e-20
1.89942e-19
9.27285e-15
-7.75775e-20
-1.89918e-19
9.27264e-15
9.35638e-20
1.99411e-19
9.27285e-15
-9.27461e-20
-1.99506e-19
9.27265e-15
7.5997e-20
1.90313e-19
9.27285e-15
-7.55928e-20
-1.90283e-19
9.27264e-15
9.26247e-20
1.99712e-19
9.27285e-15
-9.3886e-20
-1.99794e-19
9.27265e-15
7.79678e-20
1.90384e-19
9.27285e-15
-7.74501e-20
-1.90143e-19
9.27264e-15
9.33044e-20
1.99394e-19
9.27285e-15
-9.25962e-20
-1.9938e-19
9.27265e-15
7.58107e-20
1.90072e-19
9.27285e-15
-7.56024e-20
-1.90039e-19
9.27264e-15
9.25891e-20
1.99382e-19
9.27285e-15
-9.39836e-20
-1.99441e-19
9.27265e-15
7.81379e-20
1.89977e-19
9.27285e-15
-7.77316e-20
-1.89745e-19
9.27264e-15
9.35184e-20
1.98968e-19
9.27285e-15
-9.28335e-20
-1.98926e-19
9.27265e-15
7.60872e-20
1.89531e-19
9.27285e-15
-7.57302e-20
-1.89372e-19
9.27264e-15
9.26212e-20
1.98722e-19
9.27285e-15
-9.40785e-20
-1.98993e-19
9.27265e-15
7.86088e-20
1.89982e-19
9.27285e-15
-7.8394e-20
-1.90248e-19
9.27264e-15
9.44682e-20
1.99997e-19
9.27285e-15
-9.38359e-20
-2.00383e-19
9.27265e-15
7.72763e-20
1.91467e-19
9.27285e-15
-7.68834e-20
-1.91711e-19
9.27264e-15
9.40126e-20
2.01507e-19
9.27285e-15
-9.52558e-20
-2.01966e-19
9.27265e-15
7.93521e-20
1.9295e-19
9.27285e-15
-7.86543e-20
-1.9298e-19
9.27264e-15
9.46764e-20
2.02592e-19
9.27285e-15
-9.38106e-20
-2.02862e-19
9.27265e-15
7.66733e-20
1.93772e-19
9.27285e-15
-7.62135e-20
-1.93782e-19
9.27264e-15
9.33005e-20
2.03137e-19
9.27285e-15
-9.45622e-20
-2.03133e-19
9.27265e-15
7.79735e-20
1.93398e-19
9.27285e-15
-7.75148e-20
-1.92846e-19
9.27264e-15
9.31649e-20
2.01508e-19
9.27285e-15
-9.26373e-20
-2.01014e-19
9.27265e-15
7.50895e-20
1.90892e-19
9.27285e-15
-7.51681e-20
-1.90256e-19
9.27264e-15
9.1677e-20
1.98693e-19
9.27285e-15
-9.37008e-20
-1.98375e-19
9.27265e-15
7.79154e-20
1.8863e-19
9.27285e-15
-7.87275e-20
-1.8883e-19
9.27264e-15
9.45958e-20
1.98206e-19
9.27285e-15
-9.49256e-20
-1.98659e-19
9.27265e-15
7.91161e-20
1.89992e-19
9.27285e-15
-7.95393e-20
-1.91071e-19
9.27264e-15
9.62848e-20
2.01203e-19
9.27285e-15
-9.59317e-20
-2.00448e-19
9.27265e-15
7.78464e-20
1.8872e-19
9.27285e-15
-7.38708e-20
-1.85092e-19
9.27264e-15
8.79411e-20
1.92337e-19
9.27285e-15
-8.69003e-20
-1.91948e-19
9.27265e-15
7.09533e-20
1.83811e-19
9.27285e-15
-7.19923e-20
-1.85541e-19
9.27264e-15
8.9514e-20
1.96105e-19
9.27285e-15
-9.09731e-20
-1.9683e-19
9.27265e-15
7.44506e-20
1.87243e-19
9.27285e-15
-7.43342e-20
-1.8672e-19
9.27264e-15
8.90552e-20
1.94284e-19
9.27284e-15
-8.70037e-20
-1.90833e-19
9.27266e-15
6.54875e-20
1.75024e-19
9.27283e-15
-6.14934e-20
-1.67296e-19
9.27266e-15
7.38776e-20
1.69952e-19
9.27284e-15
-7.97202e-20
-1.70709e-19
9.27266e-15
7.39781e-20
1.70292e-19
9.27286e-15
-8.93673e-20
-1.8753e-19
9.27263e-15
1.15673e-19
2.11762e-19
9.27287e-15
-1.14636e-19
-2.17159e-19
9.27265e-15
9.17523e-20
2.03429e-19
9.27284e-15
-7.43808e-20
-1.88865e-19
9.27265e-15
8.21752e-20
1.87919e-19
9.27283e-15
-6.93023e-20
-1.74805e-19
5.85077e-20
1.71995e-19
1.52085e-14
3.36027e-14
5.15716e-14
1.24508e-14
2.20509e-15
2.4923e-15
1.30202e-14
-3.19619e-16
-6.65188e-16
1.24054e-14
4.43529e-16
6.08171e-16
1.28197e-14
-2.94272e-16
-4.12607e-16
1.25259e-14
2.0945e-16
2.90907e-16
1.27382e-14
-1.54348e-16
-2.08567e-16
1.2587e-14
1.11958e-16
1.46158e-16
1.26878e-14
-8.06831e-17
-9.78831e-17
1.2626e-14
5.16582e-17
5.89059e-17
1.26585e-14
-2.97258e-17
-3.11543e-17
1.26438e-14
1.64474e-17
1.49062e-17
1.26493e-14
-6.55197e-18
-5.45168e-18
1.26476e-14
2.95652e-18
1.96275e-18
1.26482e-14
-6.78003e-19
-4.41042e-19
1.26482e-14
3.09412e-19
2.12977e-19
1.26484e-14
5.32666e-20
-1.06414e-19
1.26482e-14
5.47918e-20
2.09586e-19
1.26484e-14
-9.97721e-21
-2.11484e-19
1.26483e-14
-1.19015e-20
1.9446e-19
1.26485e-14
1.33592e-20
-2.02327e-19
1.26483e-14
4.96091e-20
2.44244e-19
1.26485e-14
-5.146e-20
-2.42853e-19
1.26483e-14
1.89662e-20
2.10742e-19
1.26485e-14
-2.04829e-20
-2.06339e-19
1.26483e-14
6.46222e-20
2.29252e-19
1.26485e-14
-6.26683e-20
-2.20862e-19
1.26483e-14
3.26002e-20
1.885e-19
1.26485e-14
-3.06033e-20
-1.77596e-19
1.26483e-14
6.35583e-20
1.89229e-19
1.26485e-14
-6.15439e-20
-1.78225e-19
1.26483e-14
3.7593e-20
1.5012e-19
1.26485e-14
-3.24633e-20
-1.38467e-19
1.26483e-14
5.66968e-20
1.47227e-19
1.26485e-14
-5.02329e-20
-1.38142e-19
1.26484e-14
3.01598e-20
1.17696e-19
1.26485e-14
-2.41851e-20
-1.09083e-19
1.26484e-14
4.69928e-20
1.18793e-19
1.26485e-14
-4.28134e-20
-1.12593e-19
1.26484e-14
2.77158e-20
9.78396e-20
1.26485e-14
-2.14424e-20
-9.23801e-20
1.26484e-14
4.21422e-20
1.04812e-19
1.26485e-14
-3.54212e-20
-1.01614e-19
1.26484e-14
2.11833e-20
9.14603e-20
1.26485e-14
-1.56118e-20
-8.8943e-20
1.26484e-14
3.83495e-20
1.03593e-19
1.26485e-14
-3.49747e-20
-1.02337e-19
1.26484e-14
2.28122e-20
9.3961e-20
1.26485e-14
-1.77442e-20
-9.30899e-20
1.26484e-14
3.96988e-20
1.09591e-19
1.26485e-14
-3.41977e-20
-1.09591e-19
1.26484e-14
2.04782e-20
1.02141e-19
1.26485e-14
-1.61366e-20
-1.02217e-19
1.26484e-14
4.02199e-20
1.19397e-19
1.26485e-14
-3.806e-20
-1.19817e-19
1.26484e-14
2.50351e-20
1.11798e-19
1.26485e-14
-2.10947e-20
-1.12109e-19
1.26484e-14
4.40463e-20
1.29812e-19
1.26485e-14
-3.95907e-20
-1.30388e-19
1.26484e-14
2.42554e-20
1.21881e-19
1.26485e-14
-2.07754e-20
-1.22138e-19
1.26483e-14
4.53972e-20
1.39561e-19
1.26485e-14
-4.41011e-20
-1.39952e-19
1.26484e-14
2.93193e-20
1.30368e-19
1.26485e-14
-2.60597e-20
-1.30424e-19
1.26483e-14
4.91605e-20
1.47843e-19
1.26485e-14
-4.53658e-20
-1.48107e-19
1.26484e-14
2.8346e-20
1.37948e-19
1.26485e-14
-2.5383e-20
-1.37772e-19
1.26483e-14
4.99156e-20
1.54682e-19
1.26485e-14
-4.91787e-20
-1.54722e-19
1.26484e-14
3.29762e-20
1.43691e-19
1.26485e-14
-3.01336e-20
-1.43345e-19
1.26483e-14
5.29825e-20
1.60209e-19
1.26485e-14
-4.96131e-20
-1.60163e-19
1.26483e-14
3.14059e-20
1.48812e-19
1.26485e-14
-2.87861e-20
-1.48323e-19
1.26483e-14
5.30299e-20
1.64739e-19
1.26485e-14
-5.26896e-20
-1.64577e-19
1.26483e-14
3.5558e-20
1.52629e-19
1.26485e-14
-3.30186e-20
-1.52085e-19
1.26483e-14
5.55531e-20
1.68544e-19
1.26485e-14
-5.25014e-20
-1.68381e-19
1.26483e-14
3.35349e-20
1.56328e-19
1.26485e-14
-3.1191e-20
-1.5574e-19
1.26483e-14
5.51638e-20
1.7185e-19
1.26485e-14
-5.51443e-20
-1.71657e-19
1.26483e-14
3.74128e-20
1.59174e-19
1.26485e-14
-3.51258e-20
-1.58603e-19
1.26483e-14
5.74037e-20
1.74832e-19
1.26485e-14
-5.46132e-20
-1.74683e-19
1.26483e-14
3.51308e-20
1.62208e-19
1.26485e-14
-3.30191e-20
-1.61638e-19
1.26483e-14
5.67873e-20
1.77579e-19
1.26485e-14
-5.70385e-20
-1.77438e-19
1.26483e-14
3.8877e-20
1.64612e-19
1.26485e-14
-3.68073e-20
-1.64085e-19
1.26483e-14
5.8898e-20
1.80186e-19
1.26485e-14
-5.63323e-20
-1.80103e-19
1.26483e-14
3.64569e-20
1.67336e-19
1.26485e-14
-3.45516e-20
-1.66825e-19
1.26483e-14
5.81756e-20
1.82668e-19
1.26485e-14
-5.86624e-20
-1.82601e-19
1.26483e-14
4.01534e-20
1.6951e-19
1.26485e-14
-3.8274e-20
-1.69042e-19
1.26483e-14
6.0228e-20
1.8506e-19
1.26485e-14
-5.78536e-20
-1.85046e-19
1.26483e-14
3.76444e-20
1.72037e-19
1.26485e-14
-3.59161e-20
-1.71583e-19
1.26483e-14
5.9433e-20
1.8735e-19
1.26485e-14
-6.01202e-20
-1.87348e-19
1.26483e-14
4.13074e-20
1.74025e-19
1.26485e-14
-3.95925e-20
-1.73607e-19
1.26483e-14
6.14418e-20
1.89556e-19
1.26485e-14
-5.92312e-20
-1.896e-19
1.26483e-14
3.87269e-20
1.76375e-19
1.26485e-14
-3.71567e-20
-1.75968e-19
1.26483e-14
6.05925e-20
1.91669e-19
1.26485e-14
-6.14535e-20
-1.91718e-19
1.26483e-14
4.23682e-20
1.78183e-19
1.26485e-14
-4.07976e-20
-1.77802e-19
1.26483e-14
6.25625e-20
1.93688e-19
1.26485e-14
-6.049e-20
-1.93774e-19
1.26483e-14
3.97184e-20
1.8035e-19
1.26485e-14
-3.82839e-20
-1.79976e-19
1.26483e-14
6.16527e-20
1.95613e-19
1.26485e-14
-6.26617e-20
-1.95697e-19
1.26483e-14
4.33297e-20
1.81967e-19
1.26485e-14
-4.18845e-20
-1.81613e-19
1.26483e-14
6.35787e-20
1.97437e-19
1.26485e-14
-6.16248e-20
-1.97554e-19
1.26483e-14
4.06137e-20
1.83949e-19
1.26485e-14
-3.93017e-20
-1.83603e-19
1.26483e-14
6.26158e-20
1.99179e-19
1.26485e-14
-6.37545e-20
-1.9929e-19
1.26483e-14
4.42016e-20
1.85382e-19
1.26485e-14
-4.28676e-20
-1.85048e-19
1.26483e-14
6.45007e-20
2.00813e-19
1.26485e-14
-6.26476e-20
-2.00952e-19
1.26483e-14
4.14205e-20
1.87183e-19
1.26485e-14
-4.02134e-20
-1.86855e-19
1.26483e-14
6.34793e-20
2.02373e-19
1.26485e-14
-6.47295e-20
-2.02503e-19
1.26483e-14
4.49786e-20
1.88436e-19
1.26485e-14
-4.37417e-20
-1.88115e-19
1.26483e-14
6.53214e-20
2.03825e-19
1.26485e-14
-6.35562e-20
-2.03981e-19
1.26483e-14
4.21377e-20
1.90066e-19
1.26485e-14
-4.10262e-20
-1.89756e-19
1.26483e-14
6.4251e-20
2.05221e-19
1.26485e-14
-6.56e-20
-2.05365e-19
1.26483e-14
4.56728e-20
1.91154e-19
1.26485e-14
-4.45219e-20
-1.90844e-19
1.26483e-14
6.60537e-20
2.06503e-19
1.26485e-14
-6.43643e-20
-2.06671e-19
1.26483e-14
4.27751e-20
1.92625e-19
1.26485e-14
-4.17459e-20
-1.92326e-19
1.26483e-14
6.49324e-20
2.0774e-19
1.26485e-14