/*--------------------------------*- C++ -*----------------------------------*\
  =========                 |
  \\      /  F ield         | OpenFOAM: The Open Source CFD Toolbox
   \\    /   O peration     | Website:  https://openfoam.org
    \\  /    A nd           | Version:  13
     \\/     M anipulation  |
\*---------------------------------------------------------------------------*/
FoamFile
{
    format      ascii;
    class       volVectorField;
    location    "25";
    object      U;
}
// * * * * * * * * * * * * * * * * * * * * * * * * * * * * * * * * * * * * * //

dimensions      [0 1 -1 0 0 0 0];

internalField   nonuniform List<vector> 
81920
(
(0.000129778 4.27088e-05 4.27089e-05)
(0.000137359 1.57055e-06 1.57055e-06)
(0.000101494 -6.78374e-07 -6.78373e-07)
(0.000115232 4.79325e-07 4.79299e-07)
(0.000105796 -3.27002e-07 -3.26971e-07)
(0.000112096 2.27829e-07 2.27819e-07)
(0.000107792 -1.60949e-07 -1.60949e-07)
(0.000110859 1.12603e-07 1.12625e-07)
(0.000108599 -7.66026e-08 -7.6638e-08)
(0.000110244 4.83844e-08 4.83948e-08)
(0.000109101 -2.8031e-08 -2.80363e-08)
(0.000109813 1.48796e-08 1.49055e-08)
(0.000109419 -6.78285e-09 -6.79972e-09)
(0.000109607 2.89692e-09 2.89871e-09)
(0.00010953 -1.01956e-09 -1.01832e-09)
(0.000109558 4.18817e-10 4.12187e-10)
(0.000109553 -1.57769e-10 -1.523e-10)
(0.000109553 1.47985e-10 1.47039e-10)
(0.000109554 -1.32857e-10 -1.32387e-10)
(0.000109554 1.38121e-10 1.34006e-10)
(0.000109555 -1.41538e-10 -1.37605e-10)
(0.000109554 1.56155e-10 1.55576e-10)
(0.000109554 -1.56461e-10 -1.55985e-10)
(0.000109555 1.5026e-10 1.47204e-10)
(0.000109554 -1.47298e-10 -1.44321e-10)
(0.000109555 1.51892e-10 1.51457e-10)
(0.000109554 -1.46052e-10 -1.45692e-10)
(0.000109555 1.35005e-10 1.32871e-10)
(0.000109554 -1.27735e-10 -1.25669e-10)
(0.000109555 1.28464e-10 1.28134e-10)
(0.000109554 -1.2107e-10 -1.20814e-10)
(0.000109555 1.09929e-10 1.08544e-10)
(0.000109554 -1.02192e-10 -1.00857e-10)
(0.000109555 1.02297e-10 1.02052e-10)
(0.000109554 -9.54355e-11 -9.523e-11)
(0.000109555 8.63366e-11 8.54117e-11)
(0.000109555 -8.07357e-11 -7.98434e-11)
(0.000109555 8.29931e-11 8.27873e-11)
(0.000109555 -7.89335e-11 -7.87628e-11)
(0.000109555 7.29264e-11 7.23113e-11)
(0.000109555 -6.96442e-11 -6.90481e-11)
(0.000109555 7.33954e-11 7.32186e-11)
(0.000109555 -7.09457e-11 -7.07762e-11)
(0.000109555 6.69538e-11 6.64707e-11)
(0.000109555 -6.58008e-11 -6.53278e-11)
(0.000109555 7.14501e-11 7.12727e-11)
(0.000109555 -7.1184e-11 -7.10187e-11)
(0.000109555 6.8984e-11 6.85956e-11)
(0.000109555 -6.9072e-11 -6.8688e-11)
(0.000109555 7.50906e-11 7.49178e-11)
(0.000109555 -7.51741e-11 -7.49944e-11)
(0.000109555 7.33124e-11 7.29348e-11)
(0.000109555 -7.4123e-11 -7.37471e-11)
(0.000109555 8.08048e-11 8.06194e-11)
(0.000109555 -8.19002e-11 -8.17187e-11)
(0.000109555 8.05508e-11 8.02071e-11)
(0.000109555 -8.1551e-11 -8.12076e-11)
(0.000109555 8.77399e-11 8.75542e-11)
(0.000109555 -8.83274e-11 -8.81309e-11)
(0.000109555 8.64334e-11 8.60768e-11)
(0.000109555 -8.74205e-11 -8.7064e-11)
(0.000109555 9.37493e-11 9.35505e-11)
(0.000109555 -9.48494e-11 -9.46533e-11)
(0.000109555 9.30419e-11 9.27129e-11)
(0.000109555 -9.38624e-11 -9.35333e-11)
(0.000109555 9.94933e-11 9.92956e-11)
(0.000109555 -9.98399e-11 -9.96312e-11)
(0.000109555 9.73131e-11 9.69722e-11)
(0.000109555 -9.79707e-11 -9.76301e-11)
(0.000109555 1.03721e-10 1.03512e-10)
(0.000109555 -1.04525e-10 -1.04319e-10)
(0.000109555 1.02104e-10 1.01793e-10)
(0.000109555 -1.02593e-10 -1.02282e-10)
(0.000109555 1.07717e-10 1.07511e-10)
(0.000109555 -1.07781e-10 -1.07564e-10)
(0.000109555 1.04716e-10 1.04394e-10)
(0.000109555 -1.05095e-10 -1.04774e-10)
(0.000109555 1.10452e-10 1.10235e-10)
(0.000109555 -1.11046e-10 -1.10833e-10)
(0.000109555 1.08205e-10 1.07913e-10)
(0.000109555 -1.08491e-10 -1.08199e-10)
(0.000109555 1.13321e-10 1.13109e-10)
(0.000109555 -1.13234e-10 -1.13011e-10)
(0.000109555 1.09845e-10 1.0954e-10)
(0.000109555 -1.10089e-10 -1.09785e-10)
(0.000109555 1.15245e-10 1.15023e-10)
(0.000109555 -1.15754e-10 -1.15535e-10)
(0.000109555 1.12677e-10 1.12399e-10)
(0.000109555 -1.12881e-10 -1.12604e-10)
(0.000109555 1.17567e-10 1.17349e-10)
(0.000109555 -1.17427e-10 -1.17199e-10)
(0.000109555 1.13857e-10 1.13563e-10)
(0.000109555 -1.14054e-10 -1.13762e-10)
(0.000109555 1.19113e-10 1.18886e-10)
(0.000109555 -1.19604e-10 -1.19381e-10)
(0.000109555 1.16394e-10 1.16125e-10)
(0.000109555 -1.16575e-10 -1.16307e-10)
(0.000109555 1.21184e-10 1.20961e-10)
(0.000109555 -1.21036e-10 -1.20804e-10)
(0.000109555 1.17357e-10 1.17071e-10)
(0.000109555 -1.17547e-10 -1.17261e-10)
(0.000109555 1.22548e-10 1.22316e-10)
(0.000109555 -1.23045e-10 -1.22818e-10)
(0.000109555 1.19746e-10 1.19482e-10)
(0.000109555 -1.19922e-10 -1.19659e-10)
(0.000109555 1.24477e-10 1.24249e-10)
(0.000109555 -1.24331e-10 -1.24094e-10)
(0.000109555 1.20571e-10 1.20287e-10)
(0.000109555 -1.20757e-10 -1.20474e-10)
(0.000109555 1.25709e-10 1.25473e-10)
(0.000109555 -1.26212e-10 -1.2598e-10)
(0.000109555 1.22841e-10 1.22578e-10)
(0.000109555 -1.23013e-10 -1.22751e-10)
(0.000109555 1.27515e-10 1.27283e-10)
(0.000109555 -1.27369e-10 -1.27128e-10)
(0.000109555 1.2354e-10 1.23256e-10)
(0.000109555 -1.23722e-10 -1.23439e-10)
(0.000109555 1.28626e-10 1.28386e-10)
(0.000109555 -1.2913e-10 -1.28894e-10)
(0.000109555 1.25695e-10 1.25432e-10)
(0.000109555 -1.25858e-10 -1.25596e-10)
(0.000109555 1.30308e-10 1.30073e-10)
(0.000109555 -1.30156e-10 -1.29911e-10)
(0.000109555 1.26263e-10 1.25979e-10)
(0.000109555 -1.26435e-10 -1.26152e-10)
(0.000109555 1.3129e-10 1.31047e-10)
(0.000109555 -1.31789e-10 -1.3155e-10)
(0.000109555 1.28294e-10 1.2803e-10)
(0.000109555 -1.28445e-10 -1.28182e-10)
(0.000109555 1.32843e-10 1.32605e-10)
(0.000109555 -1.32681e-10 -1.32433e-10)
(0.000109555 1.28732e-10 1.28445e-10)
(0.000109555 -1.28892e-10 -1.28607e-10)
(0.000109555 1.33701e-10 1.33454e-10)
(0.000109555 -1.34191e-10 -1.33949e-10)
(0.000109555 1.30642e-10 1.30377e-10)
(0.000109555 -1.30779e-10 -1.30514e-10)
(0.000109555 1.35128e-10 1.34887e-10)
(0.000109555 -1.34952e-10 -1.34702e-10)
(0.000109555 1.3095e-10 1.30662e-10)
(0.000109555 -1.31097e-10 -1.3081e-10)
(0.000109555 1.3586e-10 1.35611e-10)
(0.000109555 -1.36339e-10 -1.36095e-10)
(0.000109555 1.32742e-10 1.32475e-10)
(0.000109555 -1.32863e-10 -1.32597e-10)
(0.000109555 1.37167e-10 1.36924e-10)
(0.000109555 -1.36977e-10 -1.36724e-10)
(0.000109555 1.32928e-10 1.32639e-10)
(0.000109555 -1.33063e-10 -1.32775e-10)
(0.000109555 1.37786e-10 1.37534e-10)
(0.000109555 -1.38254e-10 -1.38007e-10)
(0.000109555 1.34612e-10 1.34343e-10)
(0.000109555 -1.34718e-10 -1.34451e-10)
(0.000109555 1.3898e-10 1.38735e-10)
(0.000109555 -1.38776e-10 -1.38521e-10)
(0.000109555 1.34684e-10 1.34393e-10)
(0.000109555 -1.34805e-10 -1.34515e-10)
(0.000109555 1.3949e-10 1.39236e-10)
(0.000109555 -1.39946e-10 -1.39697e-10)
(0.000109555 1.36263e-10 1.35993e-10)
(0.000109555 -1.36354e-10 -1.36085e-10)
(0.000109555 1.40578e-10 1.4033e-10)
(0.000109555 -1.40359e-10 -1.40102e-10)
(0.000109555 1.36229e-10 1.35937e-10)
(0.000109555 -1.36337e-10 -1.36046e-10)
(0.000109555 1.4099e-10 1.40734e-10)
(0.000109555 -1.41435e-10 -1.41185e-10)
(0.000109555 1.37718e-10 1.37447e-10)
(0.000109555 -1.37798e-10 -1.37528e-10)
(0.000109555 1.4199e-10 1.41741e-10)
(0.000109555 -1.4176e-10 -1.41501e-10)
(0.000109555 1.37598e-10 1.37305e-10)
(0.000109555 -1.37697e-10 -1.37405e-10)
(0.000109555 1.42322e-10 1.42065e-10)
(0.000109555 -1.42761e-10 -1.42509e-10)
(0.000109555 1.39017e-10 1.38745e-10)
(0.000109555 -1.39088e-10 -1.38818e-10)
(0.000109555 1.43254e-10 1.43004e-10)
(0.000109555 -1.43015e-10 -1.42755e-10)
(0.000109555 1.38827e-10 1.38533e-10)
(0.000109555 -1.38917e-10 -1.38624e-10)
(0.000109555 1.43518e-10 1.43259e-10)
(0.000109555 -1.43948e-10 -1.43695e-10)
(0.000109555 1.4018e-10 1.39907e-10)
(0.000109555 -1.4024e-10 -1.39968e-10)
(0.000109554 1.44379e-10 1.44127e-10)
(0.000109555 -1.44128e-10 -1.43867e-10)
(0.000109555 1.39917e-10 1.39622e-10)
(0.000109555 -1.39999e-10 -1.39705e-10)
(0.000109555 1.44577e-10 1.44317e-10)
(0.000109555 -1.44996e-10 -1.44742e-10)
(0.000109555 1.41201e-10 1.40927e-10)
(0.000109555 -1.41246e-10 -1.40974e-10)
(0.000109554 1.45356e-10 1.45103e-10)
(0.000109555 -1.45091e-10 -1.44829e-10)
(0.000109555 1.40857e-10 1.40561e-10)
(0.000109555 -1.40929e-10 -1.40634e-10)
(0.000109555 1.45487e-10 1.45226e-10)
(0.000109555 -1.45895e-10 -1.4564e-10)
(0.000109555 1.42078e-10 1.41804e-10)
(0.000109555 -1.42113e-10 -1.4184e-10)
(0.000109554 1.46204e-10 1.45951e-10)
(0.000109555 -1.45931e-10 -1.45668e-10)
(0.000109555 1.41681e-10 1.41385e-10)
(0.000109555 -1.41751e-10 -1.41456e-10)
(0.000109555 1.46299e-10 1.46037e-10)
(0.000109555 -1.46704e-10 -1.46448e-10)
(0.000109555 1.42873e-10 1.42599e-10)
(0.000109555 -1.42907e-10 -1.42634e-10)
(0.000109554 1.46994e-10 1.4674e-10)
(0.000109555 -1.46723e-10 -1.46459e-10)
(0.000109555 1.42468e-10 1.42172e-10)
(0.000109555 -1.42541e-10 -1.42246e-10)
(0.000109554 1.47088e-10 1.46826e-10)
(0.000109554 -1.47491e-10 -1.47235e-10)
(0.000109555 1.43646e-10 1.43371e-10)
(0.000109555 -1.43672e-10 -1.43399e-10)
(0.000109554 1.4775e-10 1.47495e-10)
(0.000109555 -1.47477e-10 -1.47212e-10)
(0.000109555 1.43208e-10 1.42911e-10)
(0.000109555 -1.43279e-10 -1.42983e-10)
(0.000109554 1.47817e-10 1.47554e-10)
(0.000109554 -1.48225e-10 -1.47967e-10)
(0.000109555 1.44372e-10 1.44098e-10)
(0.000109555 -1.44406e-10 -1.44133e-10)
(0.000109554 1.48482e-10 1.48226e-10)
(0.000109555 -1.48211e-10 -1.47945e-10)
(0.000109555 1.43923e-10 1.43627e-10)
(0.000109555 -1.43991e-10 -1.43697e-10)
(0.000109554 1.48528e-10 1.48264e-10)
(0.000109554 -1.48955e-10 -1.48697e-10)
(0.000109555 1.45122e-10 1.44849e-10)
(0.000109555 -1.4519e-10 -1.44918e-10)
(0.000109554 1.4929e-10 1.49034e-10)
(0.000109555 -1.49034e-10 -1.48768e-10)
(0.000109555 1.44747e-10 1.44451e-10)
(0.000109555 -1.44819e-10 -1.44525e-10)
(0.000109554 1.49356e-10 1.49091e-10)
(0.000109554 -1.49772e-10 -1.49514e-10)
(0.000109555 1.45917e-10 1.45641e-10)
(0.000109555 -1.45954e-10 -1.4568e-10)
(0.000109554 1.50013e-10 1.49756e-10)
(0.000109555 -1.49723e-10 -1.49456e-10)
(0.000109555 1.45405e-10 1.45105e-10)
(0.000109555 -1.45439e-10 -1.45141e-10)
(0.000109554 1.49898e-10 1.49633e-10)
(0.000109554 -1.50213e-10 -1.49954e-10)
(0.000109555 1.462e-10 1.45922e-10)
(0.000109555 -1.46087e-10 -1.4581e-10)
(0.000109554 1.49983e-10 1.49725e-10)
(0.000109554 -1.49617e-10 -1.4935e-10)
(0.000109555 1.45236e-10 1.44937e-10)
(0.000109555 -1.45267e-10 -1.44971e-10)
(0.000109554 1.49686e-10 1.49421e-10)
(0.000109554 -1.49996e-10 -1.49737e-10)
(0.000109555 1.4594e-10 1.4567e-10)
(0.000109555 -1.45841e-10 -1.45573e-10)
(0.000109554 1.49738e-10 1.49481e-10)
(0.000109554 -1.49362e-10 -1.49096e-10)
(0.000109555 1.44897e-10 1.4461e-10)
(0.000109555 -1.44883e-10 -1.44597e-10)
(0.000109554 1.49343e-10 1.4908e-10)
(0.000109554 -1.49823e-10 -1.49566e-10)
(0.000109555 1.46064e-10 1.45802e-10)
(0.000109555 -1.46315e-10 -1.46055e-10)
(0.000109554 1.50605e-10 1.5035e-10)
(0.000109555 -1.50545e-10 -1.50279e-10)
(0.000109555 1.46412e-10 1.46125e-10)
(0.000109555 -1.46654e-10 -1.46368e-10)
(0.000109554 1.51387e-10 1.51123e-10)
(0.000109555 -1.51948e-10 -1.51688e-10)
(0.000109555 1.48187e-10 1.47906e-10)
(0.000109555 -1.48247e-10 -1.47967e-10)
(0.000109554 1.52357e-10 1.52099e-10)
(0.000109555 -1.52138e-10 -1.51869e-10)
(0.000109555 1.47901e-10 1.4758e-10)
(0.000109555 -1.47921e-10 -1.47602e-10)
(0.000109554 1.52268e-10 1.52001e-10)
(0.000109554 -1.52471e-10 -1.52209e-10)
(0.000109555 1.4826e-10 1.47953e-10)
(0.000109555 -1.47888e-10 -1.47584e-10)
(0.000109555 1.51337e-10 1.51076e-10)
(0.000109554 -1.5061e-10 -1.50341e-10)
(0.000109555 1.45718e-10 1.45398e-10)
(0.000109555 -1.45339e-10 -1.45022e-10)
(0.000109555 1.492e-10 1.48933e-10)
(0.000109554 -1.49321e-10 -1.49064e-10)
(0.000109555 1.45187e-10 1.44914e-10)
(0.000109555 -1.45412e-10 -1.45143e-10)
(0.000109554 1.49598e-10 1.49342e-10)
(0.000109555 -1.49702e-10 -1.4944e-10)
(0.000109555 1.45799e-10 1.45525e-10)
(0.000109555 -1.46396e-10 -1.46123e-10)
(0.000109554 1.51093e-10 1.50831e-10)
(0.000109554 -1.5054e-10 -1.50278e-10)
(0.000109555 1.4464e-10 1.44354e-10)
(0.000109555 -1.42359e-10 -1.42072e-10)
(0.000109554 1.4482e-10 1.44564e-10)
(0.000109555 -1.44207e-10 -1.43943e-10)
(0.000109555 1.4065e-10 1.40327e-10)
(0.000109555 -1.41656e-10 -1.41337e-10)
(0.000109554 1.46768e-10 1.46504e-10)
(0.000109554 -1.47274e-10 -1.47011e-10)
(0.000109555 1.43e-10 1.42695e-10)
(0.000109555 -1.42364e-10 -1.42063e-10)
(0.000109555 1.44887e-10 1.44626e-10)
(0.000109554 -1.41894e-10 -1.41628e-10)
(0.000109555 1.32917e-10 1.3261e-10)
(0.000109554 -1.28355e-10 -1.28052e-10)
(0.000109555 1.2927e-10 1.29008e-10)
(0.000109555 -1.31366e-10 -1.31135e-10)
(0.000109554 1.34628e-10 1.34478e-10)
(0.000109555 -1.45823e-10 -1.45683e-10)
(0.000109554 1.59484e-10 1.59241e-10)
(0.000109555 -1.61915e-10 -1.61633e-10)
(0.000109555 1.53594e-10 1.53275e-10)
(0.000109554 -1.43821e-10 -1.43491e-10)
(0.000109555 1.39957e-10 1.39718e-10)
(0.000109554 -1.33535e-10 -1.33228e-10)
(0.000109554 1.30341e-10 1.30111e-10)
(0.000261247 8.81367e-05 6.94224e-05)
(0.00028456 4.22025e-06 2.86114e-06)
(0.000220764 -1.03574e-06 -1.19414e-06)
(0.000249048 9.93876e-07 8.68898e-07)
(0.0002296 -6.70677e-07 -5.89527e-07)
(0.00024267 4.71968e-07 4.06866e-07)
(0.00023372 -3.39697e-07 -2.8157e-07)
(0.000240048 2.4109e-07 1.91856e-07)
(0.000235466 -1.66785e-07 -1.27701e-07)
(0.000238735 1.04888e-07 7.85882e-08)
(0.000236502 -5.93251e-08 -4.54402e-08)
(0.000237881 3.12247e-08 2.43213e-08)
(0.000237121 -1.29817e-08 -1.13516e-08)
(0.000237484 5.48354e-09 5.02085e-09)
(0.000237334 -1.58901e-09 -1.82354e-09)
(0.00023739 6.40748e-10 9.97051e-10)
(0.000237379 -1.45596e-10 -4.39711e-10)
(0.00023738 2.42952e-10 4.00726e-10)
(0.000237382 -2.08687e-10 -3.48142e-10)
(0.000237381 1.80644e-10 4.27538e-10)
(0.000237382 -1.89184e-10 -4.30802e-10)
(0.000237382 2.66207e-10 4.05506e-10)
(0.000237381 -2.69683e-10 -3.95326e-10)
(0.000237383 2.24401e-10 4.23179e-10)
(0.000237382 -2.22033e-10 -4.10782e-10)
(0.000237383 2.68631e-10 3.78656e-10)
(0.000237381 -2.60637e-10 -3.51798e-10)
(0.000237383 2.14377e-10 3.51335e-10)
(0.000237382 -2.02786e-10 -3.29e-10)
(0.000237383 2.32139e-10 3.08552e-10)
(0.000237381 -2.21483e-10 -2.8185e-10)
(0.000237383 1.82255e-10 2.71335e-10)
(0.000237382 -1.67507e-10 -2.50413e-10)
(0.000237383 1.88017e-10 2.40276e-10)
(0.000237382 -1.74775e-10 -2.17782e-10)
(0.000237383 1.43766e-10 2.03691e-10)
(0.000237382 -1.3141e-10 -1.89937e-10)
(0.000237383 1.52844e-10 1.91888e-10)
(0.000237382 -1.44656e-10 -1.79952e-10)
(0.000237383 1.22446e-10 1.71507e-10)
(0.000237383 -1.13063e-10 -1.65227e-10)
(0.000237383 1.35403e-10 1.70485e-10)
(0.000237383 -1.27539e-10 -1.63773e-10)
(0.000237383 1.09543e-10 1.58662e-10)
(0.000237383 -1.03653e-10 -1.58465e-10)
(0.000237383 1.303e-10 1.67128e-10)
(0.000237383 -1.2752e-10 -1.67588e-10)
(0.000237383 1.13187e-10 1.69296e-10)
(0.000237383 -1.09331e-10 -1.72825e-10)
(0.000237382 1.36799e-10 1.78189e-10)
(0.000237383 -1.33003e-10 -1.79409e-10)
(0.000237383 1.18031e-10 1.82814e-10)
(0.000237383 -1.15665e-10 -1.88333e-10)
(0.000237382 1.45896e-10 1.92976e-10)
(0.000237383 -1.45661e-10 -1.97531e-10)
(0.000237383 1.31258e-10 2.05306e-10)
(0.000237383 -1.29391e-10 -2.11444e-10)
(0.000237382 1.58852e-10 2.11257e-10)
(0.000237383 -1.56365e-10 -2.13927e-10)
(0.000237383 1.39462e-10 2.21115e-10)
(0.000237383 -1.37865e-10 -2.27189e-10)
(0.000237382 1.68809e-10 2.26205e-10)
(0.000237383 -1.69125e-10 -2.30655e-10)
(0.000237383 1.52173e-10 2.40518e-10)
(0.000237383 -1.50479e-10 -2.46136e-10)
(0.000237382 1.79853e-10 2.41176e-10)
(0.000237383 -1.7747e-10 -2.43009e-10)
(0.000237383 1.5794e-10 2.51155e-10)
(0.000237383 -1.56214e-10 -2.56256e-10)
(0.000237382 1.86678e-10 2.51597e-10)
(0.000237383 -1.8698e-10 -2.54996e-10)
(0.000237383 1.67746e-10 2.65195e-10)
(0.000237383 -1.65876e-10 -2.69778e-10)
(0.000237382 1.94605e-10 2.62205e-10)
(0.000237383 -1.92146e-10 -2.63038e-10)
(0.000237383 1.70713e-10 2.71195e-10)
(0.000237383 -1.6885e-10 -2.75378e-10)
(0.000237382 1.98698e-10 2.68979e-10)
(0.000237383 -1.99019e-10 -2.71558e-10)
(0.000237383 1.78315e-10 2.81681e-10)
(0.000237383 -1.764e-10 -2.85526e-10)
(0.000237382 2.04569e-10 2.76836e-10)
(0.000237383 -2.02157e-10 -2.77028e-10)
(0.000237383 1.79567e-10 2.85088e-10)
(0.000237383 -1.77743e-10 -2.88711e-10)
(0.000237382 2.07153e-10 2.81634e-10)
(0.000237383 -2.07619e-10 -2.83751e-10)
(0.000237383 1.86033e-10 2.93839e-10)
(0.000237383 -1.84219e-10 -2.97267e-10)
(0.000237382 2.12017e-10 2.88138e-10)
(0.000237383 -2.09753e-10 -2.87988e-10)
(0.000237383 1.86444e-10 2.96052e-10)
(0.000237383 -1.84757e-10 -2.99365e-10)
(0.000237382 2.13888e-10 2.92003e-10)
(0.000237382 -2.14558e-10 -2.93879e-10)
(0.000237383 1.92395e-10 3.0404e-10)
(0.000237383 -1.90738e-10 -3.0723e-10)
(0.000237382 2.18296e-10 2.97865e-10)
(0.000237382 -2.16216e-10 -2.97521e-10)
(0.000237383 1.92401e-10 3.05682e-10)
(0.000237383 -1.90882e-10 -3.08803e-10)
(0.000237382 2.19829e-10 3.01244e-10)
(0.000237382 -2.20708e-10 -3.0297e-10)
(0.000237383 1.98103e-10 3.13269e-10)
(0.000237383 -1.96606e-10 -3.16292e-10)
(0.000237382 2.23991e-10 3.06712e-10)
(0.000237382 -2.2208e-10 -3.06227e-10)
(0.000237383 1.97851e-10 3.14528e-10)
(0.000237383 -1.96482e-10 -3.17498e-10)
(0.000237382 2.25285e-10 3.09727e-10)
(0.000237382 -2.26343e-10 -3.11331e-10)
(0.000237383 2.03358e-10 3.21792e-10)
(0.000237383 -2.01998e-10 -3.2467e-10)
(0.000237382 2.2924e-10 3.14853e-10)
(0.000237382 -2.27471e-10 -3.14239e-10)
(0.000237383 2.02878e-10 3.22694e-10)
(0.000237383 -2.01642e-10 -3.25523e-10)
(0.000237382 2.30322e-10 3.17522e-10)
(0.000237382 -2.31529e-10 -3.19007e-10)
(0.000237383 2.08204e-10 3.29631e-10)
(0.000237383 -2.06959e-10 -3.32367e-10)
(0.000237382 2.34071e-10 3.22303e-10)
(0.000237382 -2.32415e-10 -3.2156e-10)
(0.000237383 2.0749e-10 3.30164e-10)
(0.000237383 -2.0636e-10 -3.32854e-10)
(0.000237382 2.34925e-10 3.24618e-10)
(0.000237382 -2.36252e-10 -3.25983e-10)
(0.000237383 2.12616e-10 3.36763e-10)
(0.000237383 -2.11463e-10 -3.3936e-10)
(0.000237382 2.38456e-10 3.29051e-10)
(0.000237382 -2.36891e-10 -3.2818e-10)
(0.000237383 2.11669e-10 3.36925e-10)
(0.000237383 -2.10631e-10 -3.39479e-10)
(0.000237382 2.39093e-10 3.31019e-10)
(0.000237382 -2.40521e-10 -3.32264e-10)
(0.000237383 2.16604e-10 3.43188e-10)
(0.000237383 -2.1553e-10 -3.45649e-10)
(0.000237382 2.42413e-10 3.35114e-10)
(0.000237382 -2.4092e-10 -3.34117e-10)
(0.000237383 2.15427e-10 3.42989e-10)
(0.000237383 -2.14463e-10 -3.45413e-10)
(0.000237382 2.42828e-10 3.36748e-10)
(0.000237382 -2.44338e-10 -3.37877e-10)
(0.000237383 2.20169e-10 3.48932e-10)
(0.000237383 -2.1916e-10 -3.51265e-10)
(0.000237382 2.45943e-10 3.40524e-10)
(0.000237382 -2.44509e-10 -3.39406e-10)
(0.000237383 2.18778e-10 3.48396e-10)
(0.000237383 -2.17881e-10 -3.50697e-10)
(0.000237382 2.4616e-10 3.4185e-10)
(0.000237382 -2.4774e-10 -3.42868e-10)
(0.000237383 2.23346e-10 3.54039e-10)
(0.000237383 -2.22393e-10 -3.56252e-10)
(0.000237382 2.49083e-10 3.45329e-10)
(0.000237382 -2.47699e-10 -3.44097e-10)
(0.000237382 2.21752e-10 3.53189e-10)
(0.000237383 -2.2091e-10 -3.55375e-10)
(0.000237382 2.49107e-10 3.46367e-10)
(0.000237382 -2.50746e-10 -3.4728e-10)
(0.000237382 2.26151e-10 3.58551e-10)
(0.000237383 -2.25243e-10 -3.6065e-10)
(0.000237382 2.51846e-10 3.49569e-10)
(0.000237382 -2.50504e-10 -3.48228e-10)
(0.000237382 2.2437e-10 3.57408e-10)
(0.000237383 -2.23578e-10 -3.59486e-10)
(0.000237382 2.51701e-10 3.50342e-10)
(0.000237382 -2.53395e-10 -3.5116e-10)
(0.000237382 2.28631e-10 3.62516e-10)
(0.000237383 -2.2777e-10 -3.64514e-10)
(0.000237382 2.54297e-10 3.53306e-10)
(0.000237382 -2.52994e-10 -3.51872e-10)
(0.000237382 2.267e-10 3.61126e-10)
(0.000237383 -2.25952e-10 -3.63113e-10)
(0.000237382 2.54009e-10 3.53866e-10)
(0.000237382 -2.55754e-10 -3.54605e-10)
(0.000237382 2.30849e-10 3.6605e-10)
(0.000237383 -2.30028e-10 -3.67965e-10)
(0.000237382 2.56492e-10 3.56656e-10)
(0.000237382 -2.55219e-10 -3.55143e-10)
(0.000237382 2.28785e-10 3.64483e-10)
(0.000237382 -2.28073e-10 -3.66389e-10)
(0.000237382 2.56075e-10 3.57047e-10)
(0.000237382 -2.57857e-10 -3.57712e-10)
(0.000237382 2.32817e-10 3.69255e-10)
(0.000237383 -2.32026e-10 -3.71083e-10)
(0.000237382 2.58428e-10 3.59664e-10)
(0.000237382 -2.5718e-10 -3.58064e-10)
(0.000237382 2.30619e-10 3.67495e-10)
(0.000237382 -2.29949e-10 -3.69311e-10)
(0.000237382 2.57903e-10 3.59871e-10)
(0.000237382 -2.59717e-10 -3.60446e-10)
(0.000237382 2.34549e-10 3.72063e-10)
(0.000237382 -2.33778e-10 -3.73795e-10)
(0.000237382 2.60118e-10 3.62267e-10)
(0.000237382 -2.58885e-10 -3.60574e-10)
(0.000237382 2.32214e-10 3.70064e-10)
(0.000237382 -2.31575e-10 -3.71797e-10)
(0.000237382 2.59487e-10 3.62272e-10)
(0.000237382 -2.61322e-10 -3.62771e-10)
(0.000237382 2.36056e-10 3.74429e-10)
(0.000237382 -2.35302e-10 -3.76094e-10)
(0.000237382 2.61602e-10 3.64496e-10)
(0.000237382 -2.60384e-10 -3.62747e-10)
(0.000237382 2.33636e-10 3.72277e-10)
(0.000237382 -2.33019e-10 -3.73971e-10)
(0.000237382 2.60914e-10 3.644e-10)
(0.000237382 -2.62765e-10 -3.64864e-10)
(0.000237382 2.37428e-10 3.76564e-10)
(0.000237382 -2.36689e-10 -3.78209e-10)
(0.000237382 2.62984e-10 3.66576e-10)
(0.000237382 -2.61788e-10 -3.64812e-10)
(0.000237382 2.34985e-10 3.74404e-10)
(0.000237382 -2.34392e-10 -3.76092e-10)
(0.000237382 2.62294e-10 3.66484e-10)
(0.000237382 -2.64155e-10 -3.6693e-10)
(0.000237382 2.38734e-10 3.78677e-10)
(0.000237382 -2.37992e-10 -3.80301e-10)
(0.000237382 2.64277e-10 3.68611e-10)
(0.000237382 -2.63103e-10 -3.66823e-10)
(0.000237382 2.36224e-10 3.76459e-10)
(0.000237382 -2.3565e-10 -3.7812e-10)
(0.000237382 2.63543e-10 3.68448e-10)
(0.000237382 -2.65447e-10 -3.68864e-10)
(0.000237382 2.39974e-10 3.80633e-10)
(0.000237382 -2.39287e-10 -3.82229e-10)
(0.000237382 2.65566e-10 3.70522e-10)
(0.000237382 -2.64434e-10 -3.68697e-10)
(0.000237382 2.37473e-10 3.78324e-10)
(0.000237382 -2.36924e-10 -3.79949e-10)
(0.000237382 2.64792e-10 3.70296e-10)
(0.000237382 -2.66777e-10 -3.70714e-10)
(0.000237382 2.41308e-10 3.82572e-10)
(0.000237382 -2.40734e-10 -3.84185e-10)
(0.000237382 2.67047e-10 3.72554e-10)
(0.000237382 -2.65947e-10 -3.70743e-10)
(0.000237382 2.38906e-10 3.80507e-10)
(0.000237382 -2.38375e-10 -3.82116e-10)
(0.000237382 2.66235e-10 3.7249e-10)
(0.000237382 -2.68206e-10 -3.72886e-10)
(0.000237382 2.42559e-10 3.84994e-10)
(0.000237382 -2.41936e-10 -3.86506e-10)
(0.000237382 2.68179e-10 3.74701e-10)
(0.000237382 -2.67034e-10 -3.72761e-10)
(0.000237382 2.39786e-10 3.82801e-10)
(0.000237382 -2.39267e-10 -3.84188e-10)
(0.000237382 2.67022e-10 3.74229e-10)
(0.000237382 -2.68864e-10 -3.74278e-10)
(0.000237382 2.42741e-10 3.86349e-10)
(0.000237382 -2.41911e-10 -3.87379e-10)
(0.000237382 2.67821e-10 3.75076e-10)
(0.000237382 -2.66735e-10 -3.72691e-10)
(0.000237382 2.39374e-10 3.8255e-10)
(0.000237382 -2.39097e-10 -3.83589e-10)
(0.000237382 2.6675e-10 3.73457e-10)
(0.000237382 -2.68749e-10 -3.73211e-10)
(0.000237382 2.42687e-10 3.84661e-10)
(0.000237382 -2.42003e-10 -3.85604e-10)
(0.000237382 2.67819e-10 3.73614e-10)
(0.000237382 -2.66747e-10 -3.71283e-10)
(0.000237382 2.39371e-10 3.80437e-10)
(0.000237382 -2.38817e-10 -3.81701e-10)
(0.000237382 2.66363e-10 3.72094e-10)
(0.000237382 -2.68608e-10 -3.72446e-10)
(0.000237382 2.43348e-10 3.84118e-10)
(0.000237382 -2.4329e-10 -3.85959e-10)
(0.000237382 2.69851e-10 3.75073e-10)
(0.000237382 -2.69165e-10 -3.73692e-10)
(0.000237382 2.42363e-10 3.83725e-10)
(0.000237382 -2.4207e-10 -3.85841e-10)
(0.000237382 2.70205e-10 3.77018e-10)
(0.000237382 -2.72291e-10 -3.78049e-10)
(0.000237382 2.46458e-10 3.91149e-10)
(0.000237383 -2.45603e-10 -3.93042e-10)
(0.000237382 2.71946e-10 3.81276e-10)
(0.000237382 -2.70841e-10 -3.79731e-10)
(0.000237382 2.43179e-10 3.91438e-10)
(0.000237382 -2.42604e-10 -3.92759e-10)
(0.000237382 2.70342e-10 3.81757e-10)
(0.000237382 -2.72087e-10 -3.81369e-10)
(0.000237382 2.44908e-10 3.94534e-10)
(0.000237382 -2.4389e-10 -3.94492e-10)
(0.000237382 2.69109e-10 3.80277e-10)
(0.000237382 -2.67877e-10 -3.76337e-10)
(0.000237383 2.39026e-10 3.85997e-10)
(0.000237382 -2.38634e-10 -3.8513e-10)
(0.000237382 2.65082e-10 3.73208e-10)
(0.000237382 -2.6762e-10 -3.71119e-10)
(0.000237383 2.41544e-10 3.8176e-10)
(0.000237382 -2.42726e-10 -3.81633e-10)
(0.000237382 2.68861e-10 3.70543e-10)
(0.000237382 -2.69491e-10 -3.67728e-10)
(0.000237382 2.43888e-10 3.76303e-10)
(0.000237383 -2.45196e-10 -3.78037e-10)
(0.000237382 2.72964e-10 3.71036e-10)
(0.000237382 -2.71979e-10 -3.70962e-10)
(0.000237383 2.41281e-10 3.79202e-10)
(0.000237382 -2.33512e-10 -3.79418e-10)
(0.000237382 2.55648e-10 3.66192e-10)
(0.000237382 -2.53887e-10 -3.65101e-10)
(0.000237382 2.28447e-10 3.78461e-10)
(0.000237382 -2.31037e-10 -3.80194e-10)
(0.000237382 2.60167e-10 3.7027e-10)
(0.000237382 -2.6259e-10 -3.68345e-10)
(0.000237383 2.35524e-10 3.78995e-10)
(0.000237382 -2.34884e-10 -3.77166e-10)
(0.000237382 2.58075e-10 3.63882e-10)
(0.000237382 -2.52659e-10 -3.56705e-10)
(0.000237383 2.14619e-10 3.58594e-10)
(0.000237382 -2.03815e-10 -3.51573e-10)
(0.000237382 2.21345e-10 3.34517e-10)
(0.000237382 -2.30012e-10 -3.32307e-10)
(0.000237382 2.23897e-10 3.50224e-10)
(0.000237383 -2.56475e-10 -3.62501e-10)
(0.000237382 3.06451e-10 3.67782e-10)
(0.000237382 -3.0847e-10 -3.71692e-10)
(0.000237383 2.69336e-10 3.76066e-10)
(0.000237382 -2.36188e-10 -3.68169e-10)
(0.000237382 2.43726e-10 3.50374e-10)
(0.000237382 -2.21129e-10 -3.50291e-10)
(0.000237382 2.01869e-10 3.91328e-10)
(0.000338787 9.25407e-05 7.09716e-05)
(0.000378156 5.55506e-06 3.10199e-06)
(0.000301849 -9.93156e-07 -1.29396e-06)
(0.000339137 1.18068e-06 9.57588e-07)
(0.000313503 -7.8845e-07 -6.49657e-07)
(0.000330831 5.58919e-07 4.47838e-07)
(0.000318921 -4.0897e-07 -3.09167e-07)
(0.000327317 2.94709e-07 2.09851e-07)
(0.000321301 -2.10225e-07 -1.3968e-07)
(0.000325515 1.34056e-07 8.57914e-08)
(0.000322696 -7.69159e-08 -4.98257e-08)
(0.000324405 4.21761e-08 2.70591e-08)
(0.000323484 -1.70002e-08 -1.26436e-08)
(0.000323918 7.58079e-09 5.73523e-09)
(0.000323743 -1.85413e-09 -2.05074e-09)
(0.000323807 8.21e-10 1.16047e-09)
(0.000323795 6.22436e-11 -4.61267e-10)
(0.000323795 1.85249e-10 4.52653e-10)
(0.000323798 -8.3009e-11 -3.75569e-10)
(0.000323798 2.9395e-11 4.56192e-10)
(0.000323799 -2.67021e-11 -4.51756e-10)
(0.000323798 1.79328e-10 4.44827e-10)
(0.000323798 -1.83314e-10 -4.30173e-10)
(0.0003238 1.01999e-10 4.47742e-10)
(0.000323798 -1.03414e-10 -4.32031e-10)
(0.0003238 2.08292e-10 4.11841e-10)
(0.000323798 -2.02113e-10 -3.81539e-10)
(0.0003238 1.26537e-10 3.7223e-10)
(0.000323798 -1.18798e-10 -3.47197e-10)
(0.0003238 1.94482e-10 3.33271e-10)
(0.000323798 -1.87149e-10 -3.03059e-10)
(0.0003238 1.26525e-10 2.86072e-10)
(0.000323798 -1.11874e-10 -2.62967e-10)
(0.0003238 1.66955e-10 2.57009e-10)
(0.000323798 -1.50394e-10 -2.32282e-10)
(0.0003238 1.01065e-10 2.1529e-10)
(0.000323799 -8.54849e-11 -1.99804e-10)
(0.0003238 1.37153e-10 2.03987e-10)
(0.000323799 -1.26224e-10 -1.8997e-10)
(0.0003238 8.94567e-11 1.80145e-10)
(0.000323799 -7.41349e-11 -1.72526e-10)
(0.0003238 1.22148e-10 1.8028e-10)
(0.000323799 -1.06577e-10 -1.72552e-10)
(0.0003238 7.32194e-11 1.67721e-10)
(0.0003238 -6.02518e-11 -1.66421e-10)
(0.000323799 1.13385e-10 1.77241e-10)
(0.0003238 -1.05568e-10 -1.76491e-10)
(0.000323799 7.69972e-11 1.78245e-10)
(0.0003238 -6.55736e-11 -1.80833e-10)
(0.000323799 1.17967e-10 1.89312e-10)
(0.0003238 -1.0595e-10 -1.90038e-10)
(0.000323799 7.42728e-11 1.93864e-10)
(0.0003238 -6.46793e-11 -1.98499e-10)
(0.000323799 1.22013e-10 2.061e-10)
(0.0003238 -1.17321e-10 -2.09731e-10)
(0.000323799 8.66812e-11 2.1701e-10)
(0.0003238 -7.80064e-11 -2.2231e-10)
(0.000323799 1.33382e-10 2.25905e-10)
(0.0003238 -1.2381e-10 -2.28217e-10)
(0.000323799 8.80313e-11 2.35008e-10)
(0.0003238 -8.03325e-11 -2.40243e-10)
(0.000323799 1.39253e-10 2.42663e-10)
(0.0003238 -1.36443e-10 -2.46264e-10)
(0.000323799 1.01306e-10 2.54818e-10)
(0.0003238 -9.40179e-11 -2.59625e-10)
(0.000323799 1.49852e-10 2.58659e-10)
(0.0003238 -1.41641e-10 -2.60187e-10)
(0.000323799 1.01566e-10 2.6725e-10)
(0.0003238 -9.48592e-11 -2.71545e-10)
(0.000323799 1.53548e-10 2.70317e-10)
(0.0003238 -1.5187e-10 -2.72927e-10)
(0.0003238 1.13132e-10 2.813e-10)
(0.0003238 -1.06636e-10 -2.85119e-10)
(0.000323799 1.61794e-10 2.81443e-10)
(0.0003238 -1.54437e-10 -2.82041e-10)
(0.0003238 1.11392e-10 2.88757e-10)
(0.0003238 -1.05348e-10 -2.92193e-10)
(0.000323799 1.63248e-10 2.89057e-10)
(0.000323799 -1.62395e-10 -2.90926e-10)
(0.0003238 1.21359e-10 2.98987e-10)
(0.0003238 -1.15476e-10 -3.02135e-10)
(0.000323799 1.6979e-10 2.97147e-10)
(0.0003238 -1.63109e-10 -2.9719e-10)
(0.0003238 1.18219e-10 3.03666e-10)
(0.0003238 -1.12759e-10 -3.06612e-10)
(0.000323799 1.69927e-10 3.02599e-10)
(0.000323799 -1.6978e-10 -3.04091e-10)
(0.0003238 1.27303e-10 3.12022e-10)
(0.0003238 -1.21974e-10 -3.14826e-10)
(0.000323799 1.75609e-10 3.09221e-10)
(0.000323799 -1.69515e-10 -3.09004e-10)
(0.0003238 1.23404e-10 3.15422e-10)
(0.0003238 -1.18465e-10 -3.18127e-10)
(0.000323799 1.75088e-10 3.13673e-10)
(0.000323799 -1.7556e-10 -3.14997e-10)
(0.0003238 1.32068e-10 3.2295e-10)
(0.0003238 -1.27234e-10 -3.25579e-10)
(0.000323799 1.80384e-10 3.19612e-10)
(0.000323799 -1.7481e-10 -3.1927e-10)
(0.0003238 1.27776e-10 3.25739e-10)
(0.0003238 -1.23313e-10 -3.28311e-10)
(0.000323799 1.79561e-10 3.23556e-10)
(0.000323799 -1.80576e-10 -3.2479e-10)
(0.0003238 1.36263e-10 3.32826e-10)
(0.0003238 -1.31869e-10 -3.35341e-10)
(0.000323799 1.84673e-10 3.29084e-10)
(0.000323799 -1.79544e-10 -3.28656e-10)
(0.0003238 1.31721e-10 3.35208e-10)
(0.0003238 -1.27666e-10 -3.37676e-10)
(0.000323799 1.83641e-10 3.3265e-10)
(0.000323799 -1.85118e-10 -3.33807e-10)
(0.0003238 1.40079e-10 3.4194e-10)
(0.0003238 -1.36064e-10 -3.44353e-10)
(0.000323799 1.88609e-10 3.37819e-10)
(0.000323799 -1.83858e-10 -3.37305e-10)
(0.000323799 1.3533e-10 3.43944e-10)
(0.0003238 -1.3164e-10 -3.46309e-10)
(0.000323799 1.87411e-10 3.41023e-10)
(0.000323799 -1.89286e-10 -3.42097e-10)