/*--------------------------------*- C++ -*----------------------------------*\
  =========                 |
  \\      /  F ield         | OpenFOAM: The Open Source CFD Toolbox
   \\    /   O peration     | Website:  https://openfoam.org
    \\  /    A nd           | Version:  13
     \\/     M anipulation  |
\*---------------------------------------------------------------------------*/
FoamFile
{
    format      ascii;
    class       surfaceScalarField;
    location    "35";
    object      phi;
}
// * * * * * * * * * * * * * * * * * * * * * * * * * * * * * * * * * * * * * //

dimensions      [0 3 -1 0 0 0 0];

internalField   nonuniform List<scalar> 
1275
(
2.96306e-13
1.85247e-13
1.85247e-13
2.64098e-13
1.61044e-14
1.61044e-14
2.76604e-13
-6.25357e-15
-6.25354e-15
2.71722e-13
2.44155e-15
2.44154e-15
2.73627e-13
-9.52775e-16
-9.52765e-16
2.72884e-13
3.71648e-16
3.71633e-16
2.73173e-13
-1.44937e-16
-1.4494e-16
2.73057e-13
5.79668e-17
5.79632e-17
2.73106e-13
-2.50862e-17
-2.51509e-17
2.73069e-13
1.6424e-17
1.62385e-17
2.73099e-13
-1.33287e-17
-1.30704e-17
2.73066e-13
1.33022e-17
1.30469e-17
2.73097e-13
-1.29182e-17
-1.25164e-17
2.7307e-13
1.10763e-17
1.08674e-17
2.73094e-13
-9.48662e-18
-9.11747e-18
2.73083e-13
4.7655e-18
4.85911e-18
2.73091e-13
-3.12181e-18
-3.22633e-18
2.73087e-13
1.87073e-18
1.91072e-18
2.73092e-13
-2.03525e-18
-2.05117e-18
1.70634e-18
1.79478e-18
5.01083e-13
8.25852e-14
2.6838e-13
4.83133e-13
8.54871e-15
2.55059e-14
4.90092e-13
-3.31697e-15
-9.89581e-15
4.8738e-13
1.29487e-15
3.859e-15
4.88436e-13
-5.0522e-16
-1.50444e-15
4.88025e-13
1.96822e-16
5.86045e-16
4.88184e-13
-7.6878e-17
-2.28148e-16
4.88118e-13
3.02216e-17
9.19186e-17
4.88147e-13
-1.3687e-17
-4.11804e-17
4.88113e-13
4.72816e-18
3.00444e-17
4.88142e-13
-4.54899e-18
-2.61417e-17
4.88106e-13
1.95505e-18
2.74861e-17
4.8814e-13
-2.87294e-18
-2.66176e-17
4.88111e-13
1.75542e-18
2.34075e-17
4.88138e-13
-1.30533e-18
-1.95225e-17
4.88129e-13
2.0488e-18
1.05384e-17
4.88137e-13
-4.20229e-19
-7.03421e-18
4.88134e-13
9.59273e-19
4.14098e-18
4.88139e-13
-3.16769e-19
-4.48945e-18
7.2579e-19
3.83334e-18
5.54578e-13
-8.25855e-14
2.77394e-13
5.44252e-13
-8.54827e-15
2.74228e-14
5.48257e-13
3.31636e-15
-1.06385e-14
5.46701e-13
-1.29397e-15
4.14602e-15
5.47305e-13
5.04424e-16
-1.61472e-15
5.4707e-13
-1.96679e-16
6.28043e-16
5.4716e-13
7.64249e-17
-2.44057e-16
5.47121e-13
-3.1051e-17
9.83145e-17
5.47138e-13
1.27331e-17
-4.50351e-17
5.47108e-13
-1.27248e-17
3.28155e-17
5.47136e-13
9.69941e-18
-3.01009e-17
5.471e-13
-1.23333e-17
3.11627e-17
5.47134e-13
1.09705e-17
-3.06777e-17
5.47104e-13
-1.01062e-17
2.67711e-17
5.47132e-13
8.77042e-18
-2.20211e-17
5.47124e-13
-2.84222e-18
1.2423e-17
5.47132e-13
2.68459e-18
-7.69747e-18
5.47129e-13
-8.65898e-19
4.70631e-18
5.47135e-13
1.85394e-18
-5.08329e-18
-1.0595e-18
4.59325e-18
5.01083e-13
-1.85247e-13
2.68379e-13
4.83133e-13
-1.6104e-14
2.55059e-14
4.90092e-13
6.25315e-15
-9.89578e-15
4.8738e-13
-2.441e-15
3.85915e-15
4.88436e-13
9.52369e-16
-1.50474e-15
4.88025e-13
-3.71666e-16
5.86125e-16
4.88184e-13
1.44536e-16
-2.28228e-16
4.88118e-13
-5.84967e-17
9.1666e-17
4.88147e-13
2.45061e-17
-4.15975e-17
4.88113e-13
-2.14156e-17
2.79362e-17
4.88142e-13
1.69761e-17
-2.46658e-17
4.88106e-13
-1.98233e-17
2.48294e-17
4.8814e-13
1.85895e-17
-2.42895e-17
4.88111e-13
-1.62251e-17
2.12699e-17
4.88138e-13
1.46751e-17
-1.73763e-17
4.88129e-13
-5.10528e-18
1.05583e-17
4.88137e-13
4.31977e-18
-6.65019e-18
4.88134e-13
-1.70776e-18
4.26475e-18
4.88139e-13
2.91744e-18
-4.05093e-18
-1.98368e-18
3.79164e-18
2.96306e-13
1.85247e-13
2.64098e-13
1.61047e-14
2.76604e-13
-6.25381e-15
2.71722e-13
2.44187e-15
2.73627e-13
-9.53045e-16
2.72884e-13
3.71637e-16
2.73173e-13
-1.45198e-16
2.73057e-13
5.76858e-17
2.73106e-13
-2.55868e-17
2.73069e-13
1.37723e-17
2.73099e-13
-1.11503e-17
2.73066e-13
9.89772e-18
2.73097e-13
-9.43719e-18
2.7307e-13
8.4454e-18
2.73094e-13
-6.24921e-18
2.73083e-13
4.90964e-18
2.73091e-13
-2.73934e-18
2.73087e-13
2.03841e-18
2.73092e-13
-1.55943e-18
1.58603e-18
5.01083e-13
2.6838e-13
8.25851e-14
4.83133e-13
2.55058e-14
8.54876e-15
4.90092e-13
-9.89588e-15
-3.31688e-15
4.8738e-13
3.85905e-15
1.29481e-15
4.88436e-13
-1.50447e-15
-5.05191e-16
4.88025e-13
5.86054e-16
1.96806e-16
4.88184e-13
-2.28136e-16
-7.68886e-17
4.88118e-13
9.19129e-17
3.02311e-17
4.88147e-13
-4.10761e-17
-1.3834e-17
4.88113e-13
3.03851e-17
4.39776e-18
4.88142e-13
-2.67049e-17
-3.9874e-18
4.88106e-13
2.79485e-17
1.52078e-18
4.8814e-13
-2.74251e-17
-2.04127e-18
4.88111e-13
2.37974e-17
1.39855e-18
4.88138e-13
-2.02597e-17
-5.29642e-19
4.88129e-13
1.03651e-17
2.28724e-18
4.88137e-13
-6.82502e-18
-6.85643e-19
4.88134e-13
4.07511e-18
1.04532e-18
4.88139e-13
-4.44779e-18
-3.60737e-19
3.62273e-18
9.76686e-19
9.41986e-13
1.30788e-13
1.30788e-13
9.64487e-13
1.4256e-14
1.4256e-14
9.55749e-13
-5.52759e-15
-5.52751e-15
9.59156e-13
2.15694e-15
2.15688e-15
9.5783e-13
-8.42489e-16
-8.42443e-16
9.58344e-13
3.28876e-16
3.28825e-16
9.58142e-13
-1.28778e-16
-1.2877e-16
9.58221e-13
5.05466e-17
5.05343e-17
9.58179e-13
-2.23052e-17
-2.24408e-17
9.58188e-13
6.95891e-18
6.5584e-18
9.58176e-13
-5.72373e-18
-5.07479e-18
9.58179e-13
1.45179e-18
8.83319e-19
9.58174e-13
-2.43565e-18
-1.39768e-18
9.58179e-13
1.31674e-18
8.53168e-19
9.58181e-13
-4.20631e-19
5.48607e-19
9.58194e-13
2.73357e-18
2.98118e-18
9.5819e-13
-3.79032e-19
-6.65924e-19
9.58197e-13
1.25178e-18
1.32271e-18
9.58195e-13
-2.71548e-19
-3.27225e-19
7.54056e-19
1.06353e-18
1.06795e-12
-1.30786e-13
1.37818e-13
1.10842e-12
-1.42558e-14
1.54705e-14
1.09272e-12
5.52611e-15
-5.99736e-15
1.09884e-12
-2.15531e-15
2.33897e-15
1.09646e-12
8.41774e-16
-9.13143e-16
1.09738e-12
-3.28971e-16
3.56067e-16
1.09702e-12
1.27971e-16
-1.39326e-16
1.09716e-12
-5.21871e-17
5.45701e-17
1.0971e-12
2.10186e-17
-2.48904e-17
1.09711e-12
-2.18875e-17
6.71225e-18
1.0971e-12
1.60796e-17
-5.64687e-18
1.0971e-12
-2.09008e-17
8.80052e-19
1.0971e-12
1.87411e-17
-1.36809e-18
1.0971e-12
-1.68902e-17
1.00117e-18
1.0971e-12
1.56877e-17
1.06315e-18
1.09712e-12
-4.40066e-18
3.83044e-18
1.09711e-12
4.92976e-18
-8.14574e-19
1.09712e-12
-1.59962e-18
1.6397e-18
1.09712e-12
3.09207e-18
-2.38042e-19
-1.82208e-18
1.34842e-18
9.41986e-13
-2.68378e-13
1.30787e-13
9.64487e-13
-2.55061e-14
1.42565e-14
9.55749e-13
9.89484e-15
-5.52751e-15
9.59156e-13
-3.85797e-15
2.15695e-15
9.5783e-13
1.5042e-15
-8.42805e-16
9.58344e-13
-5.86346e-16
3.29203e-16
9.58142e-13
2.27802e-16
-1.28836e-16
9.58221e-13
-9.30431e-17
5.05707e-17
9.58179e-13
4.04023e-17
-2.36214e-17
9.58188e-13
-3.92398e-17
7.81856e-18
9.58176e-13
3.29365e-17
-7.10417e-18
9.58179e-13
-3.91341e-17
3.21869e-18
9.58174e-13
3.72155e-17
-3.3038e-18
9.58179e-13
-3.26918e-17
3.09641e-18
9.58181e-13
2.96731e-17
-4.67139e-19
9.58194e-13
-1.13536e-17
4.24573e-18
9.5819e-13
9.74742e-18
-8.73825e-19
9.58197e-13
-4.59994e-18
1.47105e-18
9.58195e-13
6.17242e-18
-1.91748e-20
-4.37362e-18
7.70725e-19
5.01083e-13
8.25867e-14
4.83133e-13
8.54841e-15
4.90092e-13
-3.31744e-15
4.8738e-13
1.29528e-15
4.88436e-13
-5.05086e-16
4.88025e-13
1.96648e-16
4.88184e-13
-7.67721e-17
4.88118e-13
3.00302e-17
4.88147e-13
-1.37821e-17
4.88113e-13
4.68181e-18
4.88142e-13
-4.31307e-18
4.88106e-13
2.31918e-18
4.8814e-13
-2.26844e-18
4.88111e-13
2.13177e-18
4.88138e-13
-2.91624e-19
4.88129e-13
2.25351e-18
4.88137e-13
-1.58655e-19
4.88134e-13
4.04547e-19
4.88139e-13
-1.94168e-19
7.05972e-19
5.54578e-13
2.77394e-13
-8.25855e-14
5.44252e-13
2.74228e-14
-8.54832e-15
5.48257e-13
-1.06385e-14
3.31642e-15
5.46701e-13
4.14606e-15
-1.29403e-15
5.47305e-13
-1.61477e-15
5.04459e-16
5.4707e-13
6.2807e-16
-1.96706e-16
5.4716e-13
-2.44075e-16
7.64281e-17
5.47121e-13
9.83259e-17
-3.10521e-17
5.47138e-13
-4.50862e-17
1.27421e-17
5.47108e-13
3.29938e-17
-1.28511e-17
5.47136e-13
-3.03922e-17
9.99783e-18
5.471e-13
3.14626e-17
-1.2535e-17
5.47134e-13
-3.11259e-17
1.13972e-17
5.47104e-13
2.7034e-17
-1.02801e-17
5.47132e-13
-2.24204e-17
9.14685e-18
5.47124e-13
1.24267e-17
-2.79771e-18
5.47132e-13
-7.6402e-18
2.59017e-18
5.47129e-13
4.74877e-18
-8.59974e-19
5.47135e-13
-5.06674e-18
1.84863e-18
4.46305e-18
-9.44648e-19
1.06795e-12
1.37818e-13
-1.30786e-13
1.10842e-12
1.54705e-14
-1.42557e-14
1.09272e-12
-5.99748e-15
5.52616e-15
1.09884e-12
2.33906e-15
-2.15535e-15
1.09646e-12
-9.13194e-16
8.41788e-16
1.09738e-12
3.56111e-16
-3.28986e-16
1.09702e-12
-1.39321e-16
1.27972e-16
1.09716e-12
5.45738e-17
-5.21681e-17
1.0971e-12
-2.47134e-17
2.08312e-17
1.09711e-12
7.25826e-18
-2.18694e-17
1.0971e-12
-6.56379e-18
1.6205e-17
1.0971e-12
1.63866e-18
-2.08166e-17
1.0971e-12
-2.75839e-18
1.9008e-17
1.0971e-12
1.62926e-18
-1.6789e-17
1.0971e-12
-2.21563e-19
1.5999e-17
1.09712e-12
3.51244e-18
-4.0996e-18
1.09711e-12
-4.37431e-19
4.66028e-18
1.09712e-12
1.5369e-18
-1.50756e-18
1.09712e-12
-1.69085e-19
3.04737e-18
9.54923e-19
-1.58116e-18
1.21807e-12
-1.37817e-13
-1.37817e-13
1.27995e-12
-1.54699e-14
-1.54699e-14
1.25597e-12
5.99556e-15
5.99565e-15
1.26532e-12
-2.33675e-15
-2.33681e-15
1.26167e-12
9.11795e-16
9.11835e-16
1.26309e-12
-3.5596e-16
-3.55987e-16
1.26253e-12
1.38392e-16
1.38395e-16
1.26275e-12
-5.66802e-17
-5.66704e-17
1.26265e-12
2.18462e-17
2.17206e-17
1.26268e-12
-2.4351e-17
-2.45513e-17
1.26266e-12
1.71158e-17
1.75716e-17
1.26266e-12
-2.28375e-17
-2.31e-17
1.26266e-12
2.06083e-17
2.13179e-17
1.26267e-12
-1.82395e-17
-1.84474e-17
1.26267e-12
1.78567e-17
1.85371e-17
1.26268e-12
-4.23479e-18
-3.98469e-18
1.26268e-12
5.90513e-18
5.62599e-18
1.26269e-12
-2.00611e-18
-1.94191e-18
1.26269e-12
4.09405e-18
4.04756e-18
-2.51086e-18
-2.22006e-18
1.06795e-12
-2.77394e-13
-1.30787e-13
1.10842e-12
-2.74219e-14
-1.42559e-14
1.09272e-12
1.0638e-14
5.52641e-15
1.09884e-12
-4.14531e-15
-2.15554e-15
1.09646e-12
1.61389e-15
8.41844e-16
1.09738e-12
-6.28029e-16
-3.28969e-16
1.09702e-12
2.43266e-16
1.2797e-16
1.09716e-12
-9.93775e-17
-5.2163e-17
1.0971e-12
4.35209e-17
2.06299e-17
1.09711e-12
-4.36488e-17
-2.1309e-17
1.0971e-12
3.817e-17
1.56817e-17
1.0971e-12
-4.53232e-17
-1.99064e-17
1.0971e-12
4.32622e-17
1.84723e-17
1.0971e-12
-3.79477e-17
-1.59397e-17
1.0971e-12
3.34896e-17
1.56859e-17
1.09712e-12
-1.27061e-17
-3.74433e-18
1.09711e-12
9.78694e-18
4.51943e-18
1.09712e-12
-3.95668e-18
-1.47982e-18
1.09712e-12
7.00518e-18
3.06464e-18
-5.17378e-18
-1.74596e-18
5.54578e-13
-8.25848e-14
5.44252e-13
-8.54812e-15
5.48257e-13
3.31615e-15
5.46701e-13
-1.29382e-15
5.47305e-13
5.04363e-16
5.4707e-13
-1.96724e-16
5.4716e-13
7.64326e-17
5.47121e-13
-3.10909e-17
5.47138e-13
1.24957e-17
5.47108e-13
-1.2491e-17
5.47136e-13
9.65152e-18
5.471e-13
-1.17747e-17
5.47134e-13
1.10559e-17
5.47104e-13
-9.55124e-18
5.47132e-13
9.04324e-18
5.47124e-13
-2.46309e-18
5.47132e-13
2.51143e-18
5.47129e-13
-8.77017e-19
5.47135e-13
1.91853e-18
-1.08407e-18
5.01083e-13
2.68379e-13
-1.85247e-13
4.83133e-13
2.55059e-14
-1.6104e-14
4.90092e-13
-9.89579e-15
6.25313e-15
4.8738e-13
3.85914e-15
-2.44099e-15
4.88436e-13
-1.50473e-15
9.52365e-16
4.88025e-13
5.86135e-16
-3.71659e-16
4.88184e-13
-2.28219e-16
1.44543e-16
4.88118e-13
9.16786e-17
-5.84929e-17
4.88147e-13
-4.14831e-17
2.45431e-17
4.88113e-13
2.82518e-17
-2.12402e-17
4.88142e-13
-2.50519e-17
1.67434e-17
4.88106e-13
2.52574e-17
-1.958e-17
4.8814e-13
-2.48979e-17
1.82569e-17
4.88111e-13
2.16217e-17
-1.60202e-17
4.88138e-13
-1.79389e-17
1.43817e-17
4.88129e-13
1.0425e-17
-5.14803e-18
4.88137e-13
-6.52259e-18
4.37507e-18
4.88134e-13
4.19882e-18
-1.73685e-18
4.88139e-13
-4.01353e-18
2.92716e-18
3.67565e-18
-2.02873e-18
9.41986e-13
1.30787e-13
-2.68378e-13
9.64487e-13
1.42565e-14
-2.55061e-14
9.55749e-13
-5.52758e-15
9.89481e-15
9.59156e-13
2.15701e-15
-3.85794e-15
9.5783e-13
-8.42844e-16
1.50419e-15
9.58344e-13
3.29247e-16
-5.86352e-16
9.58142e-13
-1.28844e-16
2.27804e-16
9.58221e-13
5.05726e-17
-9.30494e-17
9.58179e-13
-2.34451e-17
4.03826e-17
9.58188e-13
8.07602e-18
-3.92016e-17
9.58176e-13
-7.58155e-18
3.2819e-17
9.58179e-13
3.56099e-18
-3.9075e-17
9.58174e-13
-4.11233e-18
3.70792e-17
9.58179e-13
3.35907e-18
-3.26332e-17
9.58181e-13
-1.25297e-18
2.95574e-17
9.58194e-13
3.94353e-18
-1.13542e-17
9.5819e-13
-5.61956e-19
9.77298e-18
9.58197e-13
1.38325e-18
-4.59168e-18
9.58195e-13
3.79316e-20
6.17331e-18
4.54575e-19
-4.41452e-18
1.06795e-12
-1.30787e-13
-2.77394e-13
1.10842e-12
-1.42559e-14
-2.74219e-14
1.09272e-12
5.52635e-15
1.0638e-14
1.09884e-12
-2.1555e-15
-4.14533e-15
1.09646e-12
8.41822e-16
1.6139e-15
1.09738e-12
-3.28945e-16
-6.28025e-16
1.09702e-12
1.2797e-16
2.43255e-16
1.09716e-12
-5.2171e-17
-9.93714e-17
1.0971e-12
2.07852e-17
4.34801e-17
1.09711e-12
-2.11551e-17
-4.38112e-17
1.0971e-12
1.53435e-17
3.84548e-17
1.0971e-12
-1.9724e-17
-4.55377e-17
1.0971e-12
1.79129e-17
4.36406e-17
1.0971e-12
-1.58069e-17
-3.81326e-17
1.0971e-12
1.5134e-17
3.38268e-17
1.09712e-12
-4.00301e-18
-1.2637e-17
1.09711e-12
4.77798e-18
9.69671e-18
1.09712e-12
-1.56122e-18
-3.92561e-18
1.09712e-12
3.10876e-18
6.99081e-18
-1.99072e-18
-5.08619e-18
9.41986e-13
-2.68379e-13
-2.68379e-13
9.64487e-13
-2.5506e-14
-2.5506e-14
9.55749e-13
9.89566e-15
9.8957e-15
9.59156e-13
-3.85881e-15
-3.85884e-15
9.5783e-13
1.50447e-15
1.50449e-15
9.58344e-13
-5.86314e-16
-5.86321e-16
9.58142e-13
2.27684e-16
2.27682e-16
9.58221e-13
-9.26162e-17
-9.26101e-17
9.58179e-13
4.08443e-17
4.08197e-17
9.58188e-13
-3.71725e-17
-3.72599e-17
9.58176e-13
3.19411e-17
3.21441e-17
9.58179e-13
-3.70711e-17
-3.71935e-17
9.58174e-13
3.53161e-17
3.56024e-17
9.58179e-13
-3.10502e-17
-3.11545e-17
9.58181e-13
2.73345e-17
2.75975e-17
9.58194e-13
-1.1241e-17
-1.11744e-17
9.5819e-13
8.61649e-18
8.52641e-18
9.58197e-13
-3.91756e-18
-3.9015e-18
9.58195e-13
5.50884e-18
5.49478e-18
-4.3162e-18
-4.21664e-18
5.01083e-13
-1.85247e-13
4.83133e-13
-1.61043e-14
4.90092e-13
6.25342e-15
4.8738e-13
-2.44135e-15
4.88436e-13
9.52643e-16
4.88025e-13
-3.71686e-16
4.88184e-13
1.44777e-16
4.88118e-13
-5.82354e-17
4.88147e-13
2.48856e-17
4.88113e-13
-1.88846e-17
4.88142e-13
1.50765e-17
4.88106e-13
-1.65304e-17
4.8814e-13
1.55951e-17
4.88111e-13
-1.36397e-17
4.88138e-13
1.19224e-17
4.88129e-13
-5.03316e-18
4.88137e-13
3.78239e-18
4.88134e-13
-1.81129e-18
4.88139e-13
2.46286e-18
-1.87168e-18
2.96306e-13
1.85247e-13
2.64098e-13
1.61047e-14
2.76604e-13
-6.25385e-15
2.71722e-13
2.4419e-15
2.73627e-13
-9.53057e-16
2.72884e-13
3.7165e-16
2.73173e-13
-1.45192e-16
2.73057e-13
5.76872e-17
2.73106e-13
-2.55202e-17
2.73069e-13
1.3978e-17
2.73099e-13
-1.14655e-17
2.73066e-13
1.01785e-17
2.73097e-13
-9.90267e-18
2.7307e-13
8.67796e-18
2.73094e-13
-6.67244e-18
2.73083e-13
4.81008e-18
2.73091e-13
-2.62325e-18
2.73087e-13
1.99371e-18
2.73092e-13
-1.54061e-18
1.47992e-18
5.01083e-13
8.25867e-14
4.83133e-13
8.54841e-15
4.90092e-13
-3.31751e-15
4.8738e-13
1.29534e-15
4.88436e-13
-5.05115e-16
4.88025e-13
1.96659e-16
4.88184e-13
-7.67651e-17
4.88118e-13
3.00212e-17
4.88147e-13
-1.37161e-17
4.88113e-13
4.90622e-18
4.88142e-13
-4.75512e-18
4.88106e-13
2.62581e-18
4.8814e-13
-2.89441e-18
4.88111e-13
2.39123e-18
4.88138e-13
-8.62924e-19
4.88129e-13
2.11255e-18
4.88137e-13
2.32214e-20
4.88134e-13
3.60187e-19
4.88139e-13
-1.68801e-19
5.19926e-19
5.54578e-13
-8.25848e-14
5.44252e-13
-8.54811e-15
5.48257e-13
3.31612e-15
5.46701e-13
-1.29379e-15
5.47305e-13
5.04338e-16
5.4707e-13
-1.96709e-16
5.4716e-13
7.6428e-17
5.47121e-13
-3.10945e-17
5.47138e-13
1.25246e-17
5.47108e-13
-1.24327e-17
5.47136e-13
9.49226e-18
5.471e-13
-1.16888e-17
5.47134e-13
1.08034e-17
5.47104e-13
-9.48261e-18
5.47132e-13
8.8026e-18
5.47124e-13
-2.54277e-18
5.47132e-13
2.61098e-18
5.47129e-13
-8.91872e-19
5.47135e-13
1.93063e-18
-1.19018e-18
5.01083e-13
-1.85247e-13
4.83133e-13
-1.61043e-14
4.90092e-13
6.25342e-15
4.8738e-13
-2.44135e-15
4.88436e-13
9.52638e-16
4.88025e-13
-3.71677e-16
4.88184e-13
1.44771e-16
4.88118e-13
-5.8233e-17
4.88147e-13
2.48899e-17
4.88113e-13
-1.89137e-17
4.88142e-13
1.51201e-17
4.88106e-13
-1.65668e-17
4.8814e-13
1.56287e-17
4.88111e-13
-1.36752e-17
4.88138e-13
1.19446e-17
4.88129e-13
-5.04617e-18
4.88137e-13
3.7919e-18
4.88134e-13
-1.8101e-18
4.88139e-13
2.46091e-18
-1.87828e-18
2.96306e-13
2.64098e-13
2.76604e-13
2.71722e-13
2.73627e-13
2.72884e-13
2.73173e-13
2.73057e-13
2.73106e-13
2.73069e-13
2.73099e-13
2.73066e-13
2.73097e-13
2.7307e-13
2.73094e-13
2.73083e-13
2.73091e-13
2.73087e-13
2.73092e-13
)
;

boundaryField
{
    inlet
    {
        type            calculated;
        value           nonuniform List<scalar> 
25
(
-6.668e-13
-6.668e-13
-6.668e-13
-6.668e-13
-6.668e-13
-6.668e-13
-6.668e-13
-6.668e-13
-6.668e-13
-6.668e-13
-6.668e-13
-6.668e-13
-6.668e-13
-6.668e-13
-6.668e-13
-6.668e-13
-6.668e-13
-6.668e-13
-6.668e-13
-6.668e-13
-6.668e-13
-6.668e-13
-6.668e-13
-6.668e-13
-6.668e-13
)
;
    }
    outlet
    {
        type            calculated;
        value           nonuniform List<scalar> 
25
(
2.73089e-13
4.88136e-13
5.47131e-13
4.88136e-13
2.73089e-13
4.88136e-13
9.58198e-13
1.09712e-12
9.58198e-13
4.88136e-13
5.47131e-13
1.09712e-12
1.26269e-12
1.09712e-12
5.47131e-13
4.88136e-13
9.58198e-13
1.09712e-12
9.58198e-13
4.88136e-13
2.73089e-13
4.88136e-13
5.47131e-13
4.88136e-13
2.73089e-13
)
;
    }
    Walls
    {
        type            calculated;
        value           uniform 0;
    }
}


// ************************************************************************* //
