/*--------------------------------*- C++ -*----------------------------------*\
  =========                 |
  \\      /  F ield         | OpenFOAM: The Open Source CFD Toolbox
   \\    /   O peration     | Website:  https://openfoam.org
    \\  /    A nd           | Version:  13
     \\/     M anipulation  |
\*---------------------------------------------------------------------------*/
FoamFile
{
    format      ascii;
    class       volVectorField;
    location    "35";
    object      U;
}
// * * * * * * * * * * * * * * * * * * * * * * * * * * * * * * * * * * * * * //

dimensions      [0 1 -1 0 0 0 0];

internalField   nonuniform List<vector> 
500
(
(0.000476265 5.58703e-06 5.58703e-06)
(0.000764213 7.1776e-07 7.1776e-07)
(0.000650868 -2.80073e-07 -2.80073e-07)
(0.000695189 1.09379e-07 1.09379e-07)
(0.000677863 -4.26926e-08 -4.26923e-08)
(0.000684631 1.66578e-08 1.66573e-08)
(0.00068199 -6.50727e-09 -6.50718e-09)
(0.00068301 2.58831e-09 2.58808e-09)
(0.000682624 -1.11397e-09 -1.11515e-09)
(0.000682744 6.37946e-10 6.33933e-10)
(0.000682702 -4.93651e-10 -4.88924e-10)
(0.000682708 4.52751e-10 4.47003e-10)
(0.0006827 -4.34268e-10 -4.26213e-10)
(0.000682714 3.76449e-10 3.71808e-10)
(0.000682695 -3.05375e-10 -2.97943e-10)
(0.00068273 1.83963e-10 1.85662e-10)
(0.000682713 -1.11662e-10 -1.13566e-10)
(0.000682725 7.75739e-11 7.82201e-11)
(0.000682724 -7.25836e-11 -7.28392e-11)
(0.000682727 6.1715e-11 6.33026e-11)
(0.000850703 7.80531e-06 8.00056e-06)
(0.0013656 6.79153e-07 1.27054e-06)
(0.00116352 -2.62824e-07 -4.94851e-07)
(0.00124257 1.02503e-07 1.92778e-07)
(0.00121167 -3.99651e-08 -7.493e-08)
(0.00122374 1.55714e-08 2.91406e-08)
(0.00121903 -6.06389e-09 -1.13201e-08)
(0.00122085 2.42377e-09 4.56012e-09)
(0.00122016 -1.0698e-09 -2.00321e-09)
(0.00122038 6.799e-10 1.62069e-09)
(0.0012203 -5.92153e-10 -1.40932e-09)
(0.00122032 5.57313e-10 1.46381e-09)
(0.0012203 -5.6786e-10 -1.41112e-09)
(0.00122032 4.6976e-10 1.25039e-09)
(0.00122029 -4.06706e-10 -1.04577e-09)
(0.00122035 2.15612e-10 4.94145e-10)
(0.00122032 -1.24452e-10 -3.26412e-10)
(0.00122034 8.73612e-11 2.14605e-10)
(0.00122034 -8.8748e-11 -2.89197e-10)
(0.00122034 8.01207e-11 1.87013e-10)
(0.000953305 4.44758e-12 7.7873e-06)
(0.00153052 1.38602e-11 1.37791e-06)
(0.00130418 -1.84997e-11 -5.36618e-07)
(0.00139273 2.78926e-11 2.08957e-07)
(0.00135811 -2.55643e-11 -8.11699e-08)
(0.00137164 4.75925e-12 3.15317e-08)
(0.00136636 -1.22033e-11 -1.22274e-08)
(0.0013684 -2.39507e-11 4.92384e-09)
(0.00136762 -2.73066e-11 -2.21282e-09)
(0.00136787 -2.27461e-10 1.75555e-09)
(0.00136779 1.46378e-10 -1.58041e-09)
(0.0013678 -2.93368e-10 1.61357e-09)
(0.00136778 2.28443e-10 -1.57694e-09)
(0.00136781 -2.36782e-10 1.38563e-09)
(0.00136778 2.10602e-10 -1.15692e-09)
(0.00136784 -2.24662e-11 5.84174e-10)
(0.00136781 6.37059e-11 -3.75515e-10)
(0.00136783 1.92607e-12 2.63958e-10)
(0.00136783 4.4994e-11 -3.10885e-10)
(0.00136783 -9.04348e-12 2.19506e-10)
(0.000850703 -7.80531e-06 8.00056e-06)
(0.0013656 -6.79132e-07 1.27055e-06)
(0.00116352 2.62796e-07 -4.9486e-07)
(0.00124257 -1.02465e-07 1.92804e-07)
(0.00121167 3.99344e-08 -7.49623e-08)
(0.00122374 -1.55686e-08 2.91414e-08)
(0.00121903 6.04075e-09 -1.13197e-08)
(0.00122085 -2.46024e-09 4.54115e-09)
(0.00122016 1.02911e-09 -2.02168e-09)
(0.00122038 -1.02726e-09 1.49073e-09)
(0.0012203 8.27923e-10 -1.31532e-09)
(0.00122032 -1.00976e-09 1.31577e-09)
(0.0012203 9.37841e-10 -1.28203e-09)
(0.00122032 -8.30694e-10 1.12619e-09)
(0.00122029 7.47148e-10 -9.26316e-10)
(0.00122035 -2.46066e-10 4.90236e-10)
(0.00122032 2.18002e-10 -3.05583e-10)
(0.00122034 -8.09752e-11 2.12163e-10)
(0.00122034 1.52918e-10 -2.5064e-10)
(0.00122034 -9.70071e-11 1.82695e-10)
(0.000476265 -5.58703e-06 5.58704e-06)
(0.000764213 -7.1775e-07 7.17779e-07)
(0.000650868 2.80066e-07 -2.8008e-07)
(0.000695189 -1.09369e-07 1.09388e-07)
(0.000677863 4.26862e-08 -4.27052e-08)
(0.000684631 -1.66594e-08 1.66608e-08)
(0.00068199 6.49534e-09 -6.51621e-09)
(0.00068301 -2.6006e-09 2.58245e-09)
(0.000682624 1.09916e-09 -1.13066e-09)
(0.000682744 -7.6163e-10 5.72596e-10)
(0.000682702 5.86148e-10 -4.39766e-10)
(0.000682708 -6.17707e-10 3.68028e-10)
(0.0006827 5.79939e-10 -3.4734e-10)
(0.000682714 -5.05303e-10 3.1177e-10)
(0.000682695 4.37606e-10 -2.2658e-10)
(0.00068273 -1.91136e-10 1.9253e-10)
(0.000682713 1.3991e-10 -1.08308e-10)
(0.000682725 -7.04488e-11 8.74821e-11)
(0.000682724 9.19278e-11 -5.99936e-11)
(0.000682727 -6.8599e-11 5.84426e-11)
(0.000850703 8.00056e-06 7.80531e-06)
(0.0013656 1.27054e-06 6.79156e-07)
(0.00116352 -4.94852e-07 -2.6282e-07)
(0.00124257 1.92779e-07 1.02501e-07)
(0.00121167 -7.49305e-08 -3.99642e-08)
(0.00122374 2.91413e-08 1.55707e-08)
(0.00121903 -1.132e-08 -6.06453e-09)
(0.00122085 4.56032e-09 2.42406e-09)
(0.00122016 -1.9999e-09 -1.07718e-09)
(0.00122038 1.62955e-09 6.63889e-10)
(0.0012203 -1.42127e-09 -5.6698e-10)
(0.00122032 1.47593e-09 5.36383e-10)
(0.0012203 -1.43003e-09 -5.30237e-10)
(0.00122032 1.26025e-09 4.52664e-10)
(0.00122029 -1.06328e-09 -3.71713e-10)
(0.00122035 4.89436e-10 2.26483e-10)
(0.00122032 -3.21317e-10 -1.36095e-10)
(0.00122034 2.12661e-10 9.18557e-11)
(0.00122034 -2.88462e-10 -9.06623e-11)
(0.00122034 1.82779e-10 9.02646e-11)
(0.0016688 1.21298e-05 1.21298e-05)
(0.00267997 1.16436e-06 1.16436e-06)
(0.00228422 -4.50407e-07 -4.50402e-07)
(0.00243902 1.75716e-07 1.75713e-07)
(0.00237849 -6.87138e-08 -6.87116e-08)
(0.00240215 2.68227e-08 2.68215e-08)
(0.00239291 -1.04799e-08 -1.04803e-08)
(0.0023965 4.16896e-09 4.16904e-09)
(0.00239512 -1.87412e-09 -1.88065e-09)
(0.00239559 9.15354e-10 8.92298e-10)
(0.00239542 -7.71038e-10 -7.32079e-10)
(0.00239545 6.53795e-10 6.21849e-10)
(0.00239543 -6.77319e-10 -6.20126e-10)
(0.00239546 5.50827e-10 5.23992e-10)
(0.00239542 -4.5132e-10 -3.98867e-10)
(0.0023955 3.64388e-10 3.76336e-10)
(0.00239546 -2.02683e-10 -2.17382e-10)
(0.00239549 1.49276e-10 1.5313e-10)
(0.00239549 -6.76027e-11 -7.06557e-11)
(0.00239549 1.13142e-10 1.29119e-10)
(0.00191036 7.16455e-11 1.28698e-05)
(0.00306832 -1.4002e-11 1.27483e-06)
(0.00261549 -4.96648e-11 -4.92994e-07)
(0.0027926 5.51635e-11 1.92167e-07)
(0.00272335 -1.49653e-11 -7.50315e-08)
(0.00275042 -1.11044e-11 2.92424e-08)
(0.00273984 -1.64713e-11 -1.14099e-08)
(0.00274395 -5.2694e-11 4.53957e-09)
(0.00274238 -2.54596e-11 -2.05664e-09)
(0.00274291 -4.32121e-10 1.04858e-09)
(0.00274272 2.9887e-10 -9.13616e-10)
(0.00274276 -5.54963e-10 8.10226e-10)
(0.00274273 4.65334e-10 -8.03086e-10)
(0.00274277 -4.47098e-10 6.9226e-10)
(0.00274272 4.4141e-10 -5.01605e-10)
(0.00274281 -6.19671e-11 4.3574e-10)
(0.00274277 1.47493e-10 -2.18911e-10)
(0.0027428 -2.94705e-11 1.4317e-10)
(0.0027428 8.42485e-11 -1.09674e-10)
(0.0027428 -3.11594e-11 1.60143e-10)
(0.0016688 -1.21297e-05 1.21298e-05)
(0.00267997 -1.16435e-06 1.16434e-06)
(0.00228422 4.50343e-07 -4.50403e-07)
(0.00243902 -1.75637e-07 1.75709e-07)
(0.00237849 6.866e-08 -6.86964e-08)
(0.00240215 -2.68232e-08 2.68224e-08)
(0.00239291 1.04552e-08 -1.048e-08)
(0.0023965 -4.24777e-09 4.16687e-09)
(0.00239512 1.80502e-09 -1.90207e-09)
(0.00239559 -1.59274e-09 9.23453e-10)
(0.00239542 1.23398e-09 -7.82978e-10)
(0.00239545 -1.51147e-09 6.74248e-10)
(0.00239543 1.39407e-09 -6.54689e-10)
(0.00239546 -1.24215e-09 5.78332e-10)
(0.00239542 1.12722e-09 -4.04174e-10)
(0.0023955 -4.26263e-10 3.9709e-10)
(0.00239546 3.95214e-10 -1.99954e-10)
(0.00239549 -1.63106e-10 1.41944e-10)
(0.00239549 2.09396e-10 -7.05088e-11)
(0.00239549 -1.60892e-10 1.19496e-10)
(0.000850703 -8.00053e-06 7.80538e-06)
(0.0013656 -1.27052e-06 6.79149e-07)
(0.00116352 4.94834e-07 -2.62846e-07)
(0.00124257 -1.92769e-07 1.02527e-07)
(0.00121167 7.49345e-08 -3.99689e-08)
(0.00122374 -2.91427e-08 1.5564e-08)
(0.00121903 1.12897e-08 -6.06757e-09)
(0.00122085 -4.57688e-09 2.40705e-09)
(0.00122016 1.97158e-09 -1.08487e-09)
(0.00122038 -1.82857e-09 5.81371e-10)
(0.0012203 1.57213e-09 -5.06176e-10)
(0.00122032 -1.75526e-09 4.43962e-10)
(0.0012203 1.689e-09 -4.28576e-10)
(0.00122032 -1.46952e-09 3.82603e-10)
(0.00122029 1.30183e-09 -2.64163e-10)
(0.00122035 -4.95762e-10 2.19545e-10)
(0.00122032 3.74681e-10 -9.79071e-11)
(0.00122034 -1.96035e-10 7.19353e-11)
(0.00122034 3.09129e-10 -6.76793e-11)
(0.00122034 -1.99787e-10 7.57609e-11)
(0.000953305 7.7873e-06 4.77578e-12)
(0.00153052 1.37792e-06 1.35987e-11)
(0.00130418 -5.36617e-07 -1.43839e-11)
(0.00139273 2.08955e-07 2.43915e-11)
(0.00135811 -8.11726e-08 -2.36862e-11)
(0.00137164 3.15353e-08 3.78638e-12)
(0.00136636 -1.22303e-08 -1.25552e-11)
(0.0013684 4.92597e-09 -2.35763e-11)
(0.00136762 -2.21989e-09 -3.10282e-11)
(0.00136787 1.75289e-09 -2.41102e-10)
(0.00136779 -1.57053e-09 1.72566e-10)
(0.0013678 1.61476e-09 -3.12325e-10)
(0.00136778 -1.57032e-09 2.659e-10)
(0.00136781 1.38627e-09 -2.52766e-10)
(0.00136778 -1.15093e-09 2.447e-10)
(0.00136784 5.90866e-10 -1.45246e-11)
(0.00136781 -3.80451e-10 5.32881e-11)
(0.00136783 2.69555e-10 4.52226e-12)
(0.00136783 -3.12339e-10 4.35358e-11)
(0.00136783 2.20957e-10 1.69131e-12)
(0.00191036 1.28698e-05 6.85661e-11)
(0.00306832 1.27483e-06 -1.15481e-11)
(0.00261549 -4.92999e-07 -4.54412e-11)
(0.0027926 1.92172e-07 5.20835e-11)
(0.00272335 -7.50318e-08 -1.33705e-11)
(0.00275042 2.92418e-08 -1.26904e-11)
(0.00273984 -1.14075e-08 -1.66485e-11)
(0.00274395 4.53825e-09 -5.22021e-11)
(0.00274238 -2.04287e-09 -3.62065e-11)
(0.00274291 1.07955e-09 -4.45001e-10)
(0.00274272 -9.67e-10 3.2462e-10)
(0.00274276 8.49861e-10 -5.70877e-10)
(0.00274273 -8.779e-10 5.07053e-10)
(0.00274277 7.25533e-10 -4.59177e-10)
(0.00274272 -5.70503e-10 4.82035e-10)
(0.00274281 4.15788e-10 -4.45306e-11)
(0.00274277 -1.9719e-10 1.29915e-10)
(0.0027428 1.34284e-10 -2.36382e-11)
(0.0027428 -1.05113e-10 8.1161e-11)
(0.0027428 1.39976e-10 -1.45922e-11)
(0.00219822 2.63408e-11 2.69103e-11)
(0.00353113 1.23591e-11 1.141e-11)
(0.00301032 -5.97536e-11 -5.30823e-11)
(0.00321398 7.41855e-11 6.86516e-11)
(0.00313435 -4.41954e-11 -4.11033e-11)
(0.00316548 1.12598e-12 -4.77857e-13)
(0.00315332 -2.26224e-11 -2.29732e-11)
(0.00315804 -6.4041e-11 -6.35307e-11)
(0.00315623 -8.12244e-11 -8.83733e-11)
(0.00315685 -4.98889e-10 -5.22599e-10)
(0.00315662 3.07291e-10 3.52635e-10)
(0.00315667 -6.11843e-10 -6.44653e-10)
(0.00315664 5.13435e-10 5.79692e-10)
(0.00315668 -4.81783e-10 -5.09308e-10)
(0.00315663 5.08785e-10 5.69848e-10)
(0.00315673 -2.4868e-11 -9.67212e-12)
(0.00315668 1.61627e-10 1.42551e-10)
(0.00315672 -1.97946e-11 -1.56023e-11)
(0.00315671 1.16891e-10 1.13584e-10)
(0.00315672 -4.2336e-11 -2.16155e-11)
(0.00191036 -1.28697e-05 1.48779e-11)
(0.00306832 -1.2749e-06 6.22561e-12)
(0.00261549 4.92912e-07 -3.56467e-11)
(0.0027926 -1.92061e-07 4.59412e-11)
(0.00272335 7.50033e-08 -2.61244e-11)
(0.00275042 -2.92819e-08 2.07257e-12)
(0.00273984 1.13952e-08 -2.10895e-11)
(0.00274395 -4.65544e-09 -4.88354e-11)
(0.00274238 1.98903e-09 -7.62953e-11)
(0.00274291 -1.92517e-09 -3.94707e-10)
(0.00274272 1.5454e-09 2.57247e-10)
(0.00274276 -1.89133e-09 -4.85883e-10)
(0.00274273 1.76865e-09 4.42431e-10)
(0.00274277 -1.56572e-09 -3.77755e-10)
(0.00274272 1.43679e-09 4.42888e-10)
(0.00274281 -5.2805e-10 3.39725e-12)
(0.00274277 4.91649e-10 1.12149e-10)
(0.0027428 -2.14487e-10 -1.05854e-11)
(0.0027428 2.93074e-10 8.81139e-11)
(0.0027428 -2.11387e-10 -2.53682e-11)
(0.000953305 -7.7874e-06 4.58269e-11)
(0.00153052 -1.37777e-06 -2.73968e-12)
(0.00130418 5.36632e-07 -3.85887e-11)
(0.00139273 -2.08974e-07 4.38404e-11)
(0.00135811 8.11205e-08 -1.73088e-11)
(0.00137164 -3.14845e-08 -6.48719e-12)
(0.00136636 1.2164e-08 -5.92561e-12)
(0.0013684 -4.91751e-09 -3.26565e-11)
(0.00136762 2.1122e-09 -3.23395e-11)
(0.00136787 -1.93586e-09 -2.24684e-10)
(0.00136779 1.6998e-09 1.53974e-10)
(0.0013678 -1.89919e-09 -2.67846e-10)
(0.00136778 1.8277e-09 2.49907e-10)
(0.00136781 -1.58355e-09 -2.11694e-10)
(0.00136778 1.36171e-09 2.51644e-10)
(0.00136784 -5.09113e-10 -1.13478e-11)
(0.00136781 3.41784e-10 7.34569e-11)
(0.00136783 -1.47514e-10 -2.16164e-11)
(0.00136783 3.24172e-10 5.08259e-11)
(0.00136783 -2.29895e-10 -1.02786e-11)
(0.000850703 8.00056e-06 -7.80531e-06)
(0.0013656 1.27055e-06 -6.79135e-07)
(0.00116352 -4.94858e-07 2.62797e-07)
(0.00124257 1.92801e-07 -1.02466e-07)
(0.00121167 -7.49623e-08 3.99353e-08)
(0.00122374 2.91444e-08 -1.55693e-08)
(0.00121903 -1.1321e-08 6.04137e-09)
(0.00122085 4.54282e-09 -2.46035e-09)
(0.00122016 -2.01711e-09 1.03191e-09)
(0.00122038 1.49183e-09 -1.02333e-09)
(0.0012203 -1.30722e-09 8.25355e-10)
(0.00122032 1.31763e-09 -1.00558e-09)
(0.0012203 -1.28023e-09 9.34566e-10)
(0.00122032 1.12582e-09 -8.27322e-10)
(0.00122029 -9.26584e-10 7.44034e-10)
(0.00122035 4.85837e-10 -2.4795e-10)
(0.00122032 -3.03825e-10 2.18832e-10)
(0.00122034 2.10281e-10 -8.26704e-11)
(0.00122034 -2.51071e-10 1.5338e-10)
(0.00122034 1.83798e-10 -9.64717e-11)
(0.0016688 1.21298e-05 -1.21297e-05)
(0.00267997 1.16434e-06 -1.16435e-06)
(0.00228422 -4.50408e-07 4.50347e-07)
(0.00243902 1.75713e-07 -1.75641e-07)
(0.00237849 -6.86978e-08 6.8661e-08)
(0.00240215 2.68219e-08 -2.68223e-08)
(0.00239291 -1.04787e-08 1.04541e-08)
(0.0023965 4.16625e-09 -4.24657e-09)
(0.00239512 -1.89642e-09 1.80232e-09)
(0.00239559 9.48761e-10 -1.60162e-09)
(0.00239542 -8.27516e-10 1.25618e-09)
(0.00239545 7.08801e-10 -1.52268e-09)
(0.00239543 -7.15811e-10 1.42165e-09)
(0.00239546 6.08205e-10 -1.25219e-09)
(0.00239542 -4.59469e-10 1.15209e-09)
(0.0023955 3.86552e-10 -4.20154e-10)
(0.00239546 -1.86142e-10 3.8693e-10)
(0.00239549 1.38351e-10 -1.61147e-10)
(0.00239549 -6.68312e-11 2.07419e-10)
(0.00239549 1.03151e-10 -1.51136e-10)
(0.00191036 1.80002e-11 -1.28697e-05)
(0.00306832 3.72129e-12 -1.27491e-06)
(0.00261549 -3.99343e-11 4.92916e-07)
(0.0027926 4.90581e-11 -1.92065e-07)
(0.00272335 -2.77383e-11 7.50056e-08)
(0.00275042 3.7018e-12 -2.92826e-08)
(0.00273984 -2.08927e-11 1.13951e-08)
(0.00274395 -4.93145e-11 -4.65488e-09)
(0.00274238 -6.53657e-11 1.98688e-09)
(0.00274291 -3.81262e-10 -1.9344e-09)
(0.00274272 2.30702e-10 1.56703e-09)
(0.00274276 -4.69193e-10 -1.90448e-09)
(0.00274273 3.99496e-10 1.79906e-09)
(0.00274277 -3.65041e-10 -1.57698e-09)
(0.00274272 4.01157e-10 1.46472e-09)
(0.00274281 -1.42939e-11 -5.21525e-10)
(0.00274277 1.3001e-10 4.82543e-10)
(0.0027428 -1.65489e-11 -2.13226e-10)
(0.0027428 9.12205e-11 2.91231e-10)
(0.0027428 -4.21403e-11 -2.00318e-10)
(0.0016688 -1.21297e-05 -1.21297e-05)
(0.00267997 -1.16444e-06 -1.16444e-06)
(0.00228422 4.50344e-07 4.50347e-07)
(0.00243902 -1.75632e-07 -1.75635e-07)
(0.00237849 6.86945e-08 6.8696e-08)
(0.00240215 -2.68643e-08 -2.6865e-08)
(0.00239291 1.04771e-08 1.04771e-08)
(0.0023965 -4.26502e-09 -4.26455e-09)
(0.00239512 1.84645e-09 1.84337e-09)
(0.00239559 -1.61612e-09 -1.62288e-09)
(0.00239542 1.27247e-09 1.28897e-09)
(0.00239545 -1.51593e-09 -1.52504e-09)
(0.00239543 1.41709e-09 1.44123e-09)
(0.00239546 -1.25477e-09 -1.26232e-09)
(0.00239542 1.15974e-09 1.18242e-09)
(0.0023955 -4.69621e-10 -4.62509e-10)
(0.00239546 4.35175e-10 4.26527e-10)
(0.00239549 -2.15014e-10 -2.13343e-10)
(0.00239549 2.21154e-10 2.19601e-10)
(0.00239549 -1.68518e-10 -1.58913e-10)
(0.000850703 -8.00064e-06 -7.80531e-06)
(0.0013656 -1.27042e-06 -6.79127e-07)
(0.00116352 4.94882e-07 2.62804e-07)
(0.00124257 -1.92826e-07 -1.02477e-07)
(0.00121167 7.49161e-08 3.99384e-08)
(0.00122374 -2.90967e-08 -1.55659e-08)
(0.00121903 1.12611e-08 6.0458e-09)
(0.00122085 -4.53414e-09 -2.44903e-09)
(0.00122016 1.94245e-09 1.03029e-09)
(0.00122038 -1.6572e-09 -9.25831e-10)
(0.0012203 1.44038e-09 7.53194e-10)
(0.00122032 -1.58572e-09 -8.754e-10)
(0.0012203 1.52022e-09 8.28453e-10)
(0.00122032 -1.31889e-09 -7.20296e-10)
(0.00122029 1.11226e-09 6.48464e-10)
(0.00122035 -4.2913e-10 -2.26427e-10)
(0.00122032 2.67536e-10 1.85704e-10)
(0.00122034 -1.04091e-10 -7.45881e-11)
(0.00122034 2.59069e-10 1.36607e-10)
(0.00122034 -1.93557e-10 -9.33705e-11)
(0.000476265 5.58704e-06 -5.58703e-06)
(0.000764213 7.17778e-07 -7.17751e-07)
(0.000650868 -2.8008e-07 2.80065e-07)
(0.000695189 1.09388e-07 -1.09369e-07)
(0.000677863 -4.27056e-08 4.26859e-08)
(0.000684631 1.66615e-08 -1.66592e-08)
(0.00068199 -6.51618e-09 6.4956e-09)
(0.00068301 2.58265e-09 -2.60057e-09)
(0.000682624 -1.12868e-09 1.09982e-09)
(0.000682744 5.77679e-10 -7.55499e-10)
(0.000682702 -4.46786e-10 5.77096e-10)
(0.000682708 3.75049e-10 -6.09054e-10)
(0.0006827 -3.58635e-10 5.67666e-10)
(0.000682714 3.17408e-10 -4.97856e-10)
(0.000682695 -2.37005e-10 4.26933e-10)
(0.00068273 1.89737e-10 -1.92172e-10)
(0.000682713 -1.05289e-10 1.41769e-10)
(0.000682725 8.62306e-11 -7.11024e-11)
(0.000682724 -5.96251e-11 9.2325e-11)
(0.000682727 5.59594e-11 -7.05894e-11)
(0.000850703 7.80538e-06 -8.00054e-06)
(0.0013656 6.79148e-07 -1.27052e-06)
(0.00116352 -2.62849e-07 4.9483e-07)
(0.00124257 1.02529e-07 -1.92764e-07)
(0.00121167 -3.99699e-08 7.49335e-08)
(0.00122374 1.55647e-08 -2.91446e-08)
(0.00121903 -6.06715e-09 1.12917e-08)
(0.00122085 2.40688e-09 -4.57833e-09)
(0.00122016 -1.08087e-09 1.9722e-09)
(0.00122038 5.93775e-10 -1.81083e-09)
(0.0012203 -5.27346e-10 1.53695e-09)
(0.00122032 4.60774e-10 -1.73125e-09)
(0.0012203 -4.59168e-10 1.64772e-09)
(0.00122032 3.96644e-10 -1.44757e-09)
(0.00122029 -2.92044e-10 1.26657e-09)
(0.00122035 2.12675e-10 -4.98575e-10)
(0.00122032 -8.96022e-11 3.81578e-10)
(0.00122034 6.92593e-11 -1.97769e-10)
(0.00122034 -6.64473e-11 3.10934e-10)
(0.00122034 6.7825e-11 -2.08507e-10)
(0.000953305 4.5345e-11 -7.7874e-06)
(0.00153052 -2.13398e-12 -1.37777e-06)
(0.00130418 -4.19156e-11 5.3663e-07)
(0.00139273 4.67496e-11 -2.08971e-07)
(0.00135811 -1.88903e-11 8.11193e-08)
(0.00137164 -5.91716e-12 -3.14849e-08)
(0.00136636 -5.71071e-12 1.21644e-08)
(0.0013684 -3.31438e-11 -4.91795e-09)
(0.00136762 -2.97976e-11 2.11038e-09)
(0.00136787 -2.15788e-10 -1.9318e-09)
(0.00136779 1.34846e-10 1.68982e-09)
(0.0013678 -2.55522e-10 -1.89279e-09)
(0.00136778 2.22806e-10 1.81672e-09)
(0.00136781 -2.01232e-10 -1.57738e-09)
(0.00136778 2.26817e-10 1.35269e-09)
(0.00136784 -1.75842e-11 -5.07945e-10)
(0.00136781 8.17293e-11 3.42611e-10)
(0.00136783 -2.33122e-11 -1.4682e-10)
(0.00136783 5.19669e-11 3.24827e-10)
(0.00136783 -1.90122e-11 -2.32662e-10)
(0.000850703 -7.80531e-06 -8.00064e-06)
(0.0013656 -6.79127e-07 -1.27042e-06)
(0.00116352 2.62803e-07 4.94882e-07)
(0.00124257 -1.02476e-07 -1.92825e-07)
(0.00121167 3.99375e-08 7.49163e-08)
(0.00122374 -1.55651e-08 -2.90971e-08)
(0.00121903 6.04539e-09 1.12615e-08)
(0.00122085 -2.44902e-09 -4.53429e-09)
(0.00122016 1.03085e-09 1.94232e-09)
(0.00122038 -9.2633e-10 -1.65493e-09)
(0.0012203 7.52071e-10 1.43665e-09)
(0.00122032 -8.75711e-10 -1.58273e-09)
(0.0012203 8.25094e-10 1.51644e-09)
(0.00122032 -7.2083e-10 -1.3161e-09)
(0.00122029 6.44802e-10 1.10929e-09)
(0.00122035 -2.28517e-10 -4.28777e-10)
(0.00122032 1.88143e-10 2.67544e-10)
(0.00122034 -7.46877e-11 -1.04246e-10)
(0.00122034 1.36805e-10 2.59256e-10)
(0.00122034 -9.6015e-11 -1.93776e-10)
(0.000476265 -5.58703e-06 -5.58703e-06)
(0.000764213 -7.17751e-07 -7.17751e-07)
(0.000650868 2.80073e-07 2.80073e-07)
(0.000695189 -1.09379e-07 -1.09379e-07)
(0.000677863 4.269e-08 4.269e-08)
(0.000684631 -1.66558e-08 -1.6656e-08)
(0.00068199 6.49923e-09 6.49945e-09)
(0.00068301 -2.59214e-09 -2.59227e-09)
(0.000682624 1.10687e-09 1.10687e-09)
(0.000682744 -6.97306e-10 -6.95563e-10)
(0.000682702 5.38509e-10 5.35251e-10)
(0.000682708 -5.36922e-10 -5.34587e-10)
(0.0006827 5.05058e-10 5.01419e-10)
(0.000682714 -4.41776e-10 -4.39628e-10)
(0.000682695 3.66563e-10 3.6353e-10)
(0.00068273 -1.87011e-10 -1.87083e-10)
(0.000682713 1.22717e-10 1.23144e-10)
(0.000682725 -6.82697e-11 -6.84163e-11)
(0.000682724 7.90596e-11 7.92379e-11)
(0.000682727 -6.56337e-11 -6.62613e-11)
)
;

boundaryField
{
    inlet
    {
        type            fixedValue;
        value           uniform (0.001667 0 0);
    }
    outlet
    {
        type            zeroGradient;
    }
    Walls
    {
        type            noSlip;
    }
}


// ************************************************************************* //
