/*--------------------------------*- C++ -*----------------------------------*\
  =========                 |
  \\      /  F ield         | OpenFOAM: The Open Source CFD Toolbox
   \\    /   O peration     | Website:  https://openfoam.org
    \\  /    A nd           | Version:  13
     \\/     M anipulation  |
\*---------------------------------------------------------------------------*/
FoamFile
{
    format      ascii;
    class       volScalarField;
    location    "91";
    object      p;
}
// * * * * * * * * * * * * * * * * * * * * * * * * * * * * * * * * * * * * * //

dimensions      [0 2 -2 0 0 0 0];

internalField   nonuniform List<scalar> 
7241
(
1.57553
16.5783
-0.194623
30.7303
13.2483
43.8965
2.56964
-0.223185
13.3559
16.433
45.0741
44.7867
16.3954
11.4015
54.8065
39.5201
44.6508
39.4965
56.7103
43.3531
43.5594
43.2598
39.3002
43.4891
39.3391
39.3964
43.1152
37.8843
42.1114
54.1828
11.8094
16.522
16.312
36.2786
54.0332
36.3363
14.8128
11.6995
14.8975
3.3835
0.320746
34.7443
34.611
34.3537
33.0499
16.9537
14.9607
38.5506
57.5431
54.9882
55.2797
14.955
38.3317
13.0237
13.478
38.3083
37.7362
36.9713
36.2734
53.7206
53.4801
29.8754
47.1244
22.5785
47.3058
29.6108
56.3505
29.7589
56.6421
29.5207
57.1804
34.9507
27.884
27.8931
45.6841
45.4967
46.8738
28.1916
17.0575
44.0538
6.78458
6.93736
32.5194
13.355
42.4802
19.6613
31.3332
42.6482
45.2806
42.4097
13.272
26.6402
42.4899
31.1455
40.6568
24.8731
55.3225
37.24
8.23548
13.395
31.3049
5.15196
5.33739
40.9459
29.9944
39.2767
28.8044
39.1285
23.3889
39.4822
3.57755
3.66352
50.1218
29.5039
3.56034
23.3359
13.8674
34.649
28.7173
37.72
28.1516
35.7655
21.582
21.727
4.11912
55.7647
21.8087
27.8091
19.9644
19.9378
19.8905
20.1211
18.6103
1.19248
18.1917
18.4905
18.2806
11.8491
1.91046
23.2371
31.2111
16.5718
27.1439
16.946
51.0757
3.9659
2.03304
23.8082
10.6073
8.52843
49.3845
16.937
26.6426
22.4635
22.5397
11.6912
9.31545
23.0355
9.14301
31.1112
40.1144
42.6066
11.8402
15.257
36.4804
0.0996696
21.0645
29.5349
19.3866
13.6878
13.5987
17.2929
19.9326
50.2488
0.408864
39.125
0.256774
16.8923
11.9925
19.6781
28.0005
11.7234
56.3312
8.24146
27.7874
17.9174
26.5921
54.5941
11.0227
57.9156
57.7415
26.512
26.3498
25.3879
24.7607
10.4295
17.2192
57.7822
8.07578
8.29333
25.4042
11.5087
8.15542
24.8325
56.0174
55.8818
32.8399
7.2931
30.2394
7.14733
48.0978
11.8416
21.4501
21.5438
21.6606
19.8192
26.1225
26.0803
50.4903
19.6652
54.457
21.8165
24.9839
25.1367
25.2452
17.915
5.23981
23.8521
23.7078
23.6516
23.7945
29.0499
5.56263
23.7497
14.9578
3.90876
3.81118
4.00656
50.6216
2.32447
11.7564
51.4265
24.2467
23.1548
2.21041
54.1425
54.1202
52.5285
0.710704
9.83618
22.7968
6.54752
0.652382
6.45836
57.9508
7.81497
6.62559
8.58648
10.2224
4.7709
10.0063
14.011
5.50156
5.72946
9.83518
58.0505
10.0054
6.94979
56.0569
10.3911
26.5065
3.3364
51.6189
56.3496
29.195
19.9729
56.259
5.16524
56.1856
3.32509
2.91281
2.51616
54.5235
29.3651
1.00079
49.217
10.0054
8.41225
0.0633233
1.58309
1.57324
8.58896
55.9203
6.57318
8.59904
19.9021
47.1248
2.0445
20.3147
47.7385
1.63192
47.6456
53.1283
18.497
53.4268
54.0704
48.5779
15.2173
58.3605
18.7687
10.98
47.6723
47.8337
54.3266
11.4661
10.4448
58.7228
57.993
51.2678
57.8625
36.7297
8.2511
18.7573
6.67343
7.15214
6.88667
40.8119
13.8032
47.9402
47.6883
6.80397
11.4079
25.5807
14.9562
48.0894
41.7324
6.92311
38.7606
36.8678
34.0698
7.34662
18.6112
18.5895
5.11931
5.21108
52.4062
52.6347
5.21141
56.44
1.58822
5.1139
46.5697
51.4733
41.114
57.0577
27.4645
49.5028
28.4888
49.6558
13.6527
49.6877
49.5419
34.5978
27.5728
41.278
9.23999
41.1717
56.2645
49.7123
25.3412
41.345
44.7816
44.6431
44.9315
32.8436
34.268
46.2671
46.3307
41.1731
20.7133
44.3302
39.7393
16.7749
52.3148
39.5782
39.6496
16.2496
39.584
41.995
41.557
11.3118
3.64799
49.6565
41.5601
39.7964
13.037
41.611
25.4184
39.8359
38.3245
8.15956
15.5076
8.57386
38.621
47.8456
9.597
7.16901
38.1069
7.44555
38.0982
7.38562
37.945
2.86838
38.049
27.3669
36.6584
16.9805
2.77291
39.0113
37.8879
19.3834
36.4502
43.9361
35.1104
58.2355
36.3642
58.4519
3.64525
57.5
38.4772
38.3021
38.3981
38.1413
38.4158
55.3072
33.3688
40.5442
36.8296
53.504
36.6527
30.501
12.1744
28.6545
53.6346
36.7382
28.7262
34.8626
28.5334
34.7085
12.9368
35.2543
52.0995
34.8099
6.3029
34.7364
2.67227
40.5866
50.095
33.4313
33.2169
25.5325
33.1698
48.3201
21.2031
38.8959
23.6838
33.3037
23.4016
33.1497
22.0786
3.74447
11.1812
32.0242
40.6517
12.6705
46.1285
20.4021
20.5696
11.2665
18.9397
11.1557
11.1489
42.2422
43.2015
4.03447
17.3743
30.1807
30.4153
3.63934
40.6586
3.45502
28.6401
1.81133
42.5613
43.3297
39.4895
29.9684
15.7168
30.062
39.4977
11.7408
14.1041
36.369
29.8209
9.70548
1.98355
28.4033
28.4289
12.3014
53.408
43.0384
28.4293
36.0782
48.6935
10.8738
28.2556
28.3522
34.1109
34.2515
46.0386
33.6257
25.3263
9.3079
25.4941
50.2021
25.5792
28.2462
23.7975
2.0906
1.89538
8.8339
44.7771
7.75215
23.9462
31.5923
22.2051
6.0607
6.09782
29.8727
4.24176
42.7254
40.6418
4.2932
42.0916
8.1712
42.1288
37.324
37.4813
39.5172
25.2398
25.0878
27.5866
25.0326
25.8762
26.5697
2.97389
39.9571
25.0153
25.0239
1.32714
20.4855
20.579
20.719
23.499
55.0684
24.1932
8.41297
33.3054
24.7477
7.63431
7.50957
23.4199
2.02407
21.1602
0.337168
0.184094
18.7943
20.8495
0.189549
19.9637
51.0985
17.2442
0.319117
17.4322
17.4898
15.8433
27.3208
15.6938
26.0122
15.599
18.1741
5.56134
29.4037
15.6843
5.61178
15.6895
21.9327
21.8147
14.2533
22.305
54.5296
3.72885
53.3598
31.5997
3.74862
21.9689
3.54214
51.6933
3.73958
11.653
10.7771
0.259553
12.1156
51.4118
12.1895
3.97649
0.259777
12.6513
56.501
10.1018
18.8055
10.3379
13.5883
8.79257
12.771
56.2505
56.6144
50.1925
56.3964
56.525
7.23603
48.8484
18.5321
7.41464
18.5988
4.9409
4.52165
9.39727
18.755
4.77303
52.9467
53.1835
1.04676
7.55251
3.4441
1.17455
2.20795
1.92025
2.4523
7.78208
7.45328
17.1418
17.0344
1.16054
56.5715
58.1598
5.92197
5.94924
56.4746
45.2321
6.18007
14.1968
4.56191
8.50747
15.3962
4.39647
54.4519
58.0002
53.8532
4.31549
2.60433
54.4982
43.5753
2.91895
52.8992
52.7626
52.7345
2.91704
51.1709
50.9964
2.75997
50.512
42.6277
41.7897
57.4213
15.4778
54.5656
54.5866
49.2193
15.303
53.2884
45.9898
48.1962
48.3217
48.0534
46.3927
31.2256
52.9519
53.1707
13.9143
45.3864
13.7938
38.574
42.9849
53.0372
49.9338
38.6748
12.2402
15.3137
53.0126
12.0975
41.7179
12.1247
42.0194
12.2861
39.7547
37.2576
37.1171
53.6306
31.092
10.5987
35.7854
52.527
10.5212
10.7011
55.4187
51.2644
52.1909
10.5472
30.9257
51.2398
38.9752
51.1118
36.3864
49.7942
35.5118
43.0991
33.3979
53.6838
50.0112
57.4257
49.8922
49.8024
56.1255
46.479
51.8113
33.1969
52.1512
30.7309
46.4768
46.5585
50.1835
31.7977
48.8977
31.9377
47.2503
53.1284
25.8198
26.9571
1.50763
48.6531
30.2687
30.1242
29.2293
28.475
48.6992
29.2517
21.1777
23.3408
46.6564
50.2443
27.7368
27.5352
23.9532
48.5902
26.5434
46.5669
46.2168
5.62709
5.76865
24.9738
5.65048
46.9495
25.4148
52.4355
26.1902
25.9699
47.0108
23.6159
23.711
5.76303
45.0773
17.6207
22.111
24.1254
4.22662
52.1834
4.12488
24.575
43.4808
20.6272
43.3473
18.6511
45.3282
18.8375
2.50118
5.54769
10.1842
17.3511
22.8216
55.3575
22.9506
7.30926
43.7246
14.6909
43.8204
15.4747
4.22183
43.9386
21.032
47.9404
20.9939
43.7859
42.5118
11.2692
42.3962
2.53351
6.01165
2.26964
19.2962
51.2653
12.2757
2.55698
40.5361
12.1898
40.7305
8.28628
10.8745
19.6593
17.6731
8.69457
2.3944
43.4438
57.5247
38.7532
7.99826
7.981
7.90619
38.7198
41.9382
53.7604
5.85175
6.0354
6.20846
24.4063
41.769
6.41036
38.8812
45.3122
39.2002
43.356
4.13149
40.3388
1.18379
40.1026
40.001
59.2558
35.6447
40.9208
14.2193
35.1209
37.5796
40.7731
40.3239
35.6597
57.6647
35.8609
56.8886
13.2654
38.8202
58.9022
24.4621
59.1435
56.5853
11.3377
11.2971
24.6218
32.6523
54.9087
54.9904
24.6276
39.984
32.0259
54.9965
54.8987
9.46857
54.9338
55.0178
55.7651
31.1833
57.8045
51.8473
53.0759
51.1121
53.2882
25.4251
9.29798
8.09213
22.0478
8.05258
52.0668
23.7445
27.4061
53.1766
51.7308
53.2022
7.95415
49.9662
53.2899
29.2952
29.4161
50.5152
51.5961
51.7701
16.2323
28.5329
36.7652
48.479
37.0081
51.6612
26.2824
53.7791
48.8637
50.0515
48.4316
49.9406
37.1129
24.5159
0.79858
36.8547
21.3042
47.2845
2.99198
3.67961
45.4986
2.35287
33.547
46.48
3.33198
35.0004
45.3945
48.4223
16.3372
51.9574
1.62518
44.9191
44.85
48.5344
33.3955
43.7728
43.9201
43.9559
47.8666
22.7338
33.7873
41.9707
40.8886
6.77637
41.5242
42.0563
21.0544
42.7179
1.64464
46.5915
21.0937
42.0451
21.1551
40.2268
23.3587
26.8893
40.2136
21.4032
33.8968
32.2143
19.475
19.5717
57.8046
19.7138
57.7302
58.0184
39.3065
33.6705
31.4117
37.1611
31.2944
45.247
5.56244
37.1266
55.7541
45.2444
26.7398
56.2376
19.1091
15.9184
22.8717
30.0795
35.849
45.4495
30.2666
55.9164
45.0906
35.328
35.6096
30.2406
14.374
34.0797
54.4313
30.3877
34.5454
13.3636
33.9629
49.6713
33.7318
54.6265
30.2996
30.5087
52.7324
32.4964
32.7346
45.1906
28.8889
30.575
16.3452
52.81
16.4293
4.23522
52.9525
31.1032
31.167
47.5907
17.2752
29.1185
30.3229
30.3218
29.0579
51.0219
23.2598
28.0132
51.4198
27.8634
26.8916
51.0759
30.5578
18.0826
27.5634
42.0848
33.8031
34.1764
41.9939
49.9376
30.6627
26.3293
49.8937
30.4106
13.0186
13.25
17.8566
24.6649
22.6226
23.0697
49.76
17.9163
48.1807
47.917
26.2704
49.0427
48.4365
48.9779
27.0931
27.3288
35.0994
20.7234
27.4347
45.6224
25.5071
21.2949
19.1671
25.4972
9.88684
19.8562
9.88225
38.6539
19.3714
17.9295
18.0051
46.3047
43.9939
38.8343
8.34379
38.8261
36.9935
44.3904
27.183
51.8283
55.1232
15.2622
44.6574
39.7441
42.0076
16.0774
44.4361
23.8531
44.3992
24.0895
24.1944
14.8772
46.1164
43.1047
42.8889
35.5674
20.2618
12.9884
35.4945
36.7838
35.6709
35.5284
22.1731
35.6033
35.113
41.0755
5.16924
41.4252
41.4366
11.7014
41.695
10.233
10.1034
9.92958
5.20937
45.3111
39.7881
39.6408
23.9418
40.1164
9.08979
3.1173
35.3361
42.0469
20.8424
40.0083
39.924
14.647
20.6238
7.0946
32.2607
32.2621
38.4785
29.5103
7.0349
38.2
38.1948
32.368
36.7588
7.87191
32.2921
36.4671
20.6203
0.260123
20.7125
2.57721
21.4285
27.3197
32.2792
17.3727
3.31927
22.5065
36.4692
22.4593
3.2658
39.7004
36.8261
21.6854
0.175927
0.109597
40.0683
34.9119
2.19082
21.7899
34.975
20.3126
39.9803
18.8539
34.9485
57.5949
57.7168
-0.0750944
-0.042581
40.1902
16.8628
15.6114
28.9417
-0.0580489
29.1233
16.89
29.0717
58.6659
20.3989
13.3912
42.7696
27.3211
17.6122
11.6262
57.0695
31.7335
31.7127
55.307
11.3605
55.1729
16.0055
57.1181
55.7737
53.8582
15.9192
54.3905
53.9758
10.0727
54.077
3.93712
25.8948
54.0828
15.5824
25.9281
51.8827
30.1878
52.8143
25.7792
15.7621
50.8709
15.5336
25.7082
14.8822
51.1444
17.7211
28.1773
17.4966
20.7379
49.3316
28.5242
0.63768
47.1628
49.2162
28.5182
48.154
9.05858
28.7938
47.259
47.5411
47.0251
45.8742
5.63772
26.9849
45.8154
41.6424
14.1328
14.3802
22.5658
51.4712
32.3583
22.5771
44.2983
53.172
41.4516
42.3122
27.009
48.4336
40.3637
22.6546
22.6761
45.2324
14.4873
48.3613
25.2077
51.7748
40.5027
43.8834
14.2523
39.3434
38.8451
39.2933
25.2617
25.3188
37.5675
33.3352
35.413
37.4941
25.133
37.7746
5.92365
25.2249
37.5624
23.3593
36.089
33.9283
30.8722
11.2674
23.7711
29.1968
50.1094
36.4845
23.7163
11.0173
23.734
59.2468
19.3954
33.3572
33.7955
33.6617
19.4428
23.6105
32.6631
33.6072
18.2225
17.5827
22.4658
30.5492
19.3008
19.2375
43.6036
21.9236
29.9984
22.3249
10.9289
29.6324
18.4451
9.13966
28.2128
28.0313
28.3224
21.8325
28.1099
28.081
21.9926
26.5362
17.6969
17.5916
9.48037
10.9251
20.4066
20.5099
24.9777
20.5731
8.02158
44.4403
22.6765
16.1595
22.9471
16.0667
8.32663
18.8153
30.6923
18.7894
21.6423
54.4985
18.8218
16.6257
14.3675
20.3239
48.9587
14.4563
17.3341
14.4501
14.3475
7.76664
8.15294
50.8799
12.9872
12.8741
8.46711
43.867
31.5528
14.1835
12.8868
17.0578
15.329
15.6899
15.1245
15.563
15.8638
37.164
15.4242
6.61424
12.9675
12.9968
13.6379
7.7729
13.6081
5.11777
35.9871
13.4634
11.6633
7.68426
49.1546
37.2105
5.48718
11.246
6.03604
7.68123
10.9098
4.79105
12.3178
4.57116
38.8659
44.9896
10.7301
20.3593
10.718
7.90463
9.75272
9.71371
17.8016
12.2306
9.65929
7.02035
6.87858
4.2147
10.9302
4.56839
10.9787
12.6786
8.02283
10.7435
4.68663
3.76921
10.0535
4.15729
23.1208
6.33998
3.69695
5.03614
4.46163
51.1577
3.15829
4.82735
8.76345
9.15649
2.15865
51.7853
9.10514
19.2351
9.12629
9.34895
3.56144
7.48912
7.32772
32.1918
4.44607
1.35494
34.8175
25.034
5.07964
6.29844
58.4595
3.26013
57.8858
7.24775
19.806
34.6372
56.5306
1.74111
5.88214
26.9826
41.6861
5.90469
34.0668
34.7152
5.83116
6.39588
1.43419
36.641
4.28245
1.28193
1.41593
4.22566
26.7091
1.56817
4.33855
51.6314
0.562885
2.92216
23.5075
51.7161
0.404379
2.84224
11.4945
44.5196
2.91476
56.9465
14.8061
50.0256
56.9302
44.8519
48.3267
3.26699
9.07028
3.22914
3.05424
34.3094
3.16115
56.9278
33.2002
1.79773
0.956375
1.86946
55.9651
55.8491
0.861123
56.9677
47.2022
58.0897
51.052
58.2796
1.73886
-0.0249155
-0.124942
-0.104463
-0.237324
56.9683
53.4413
53.3334
41.8154
47.9235
25.0704
40.3474
17.8524
52.2199
8.20992
52.1845
55.4264
24.9441
38.8353
43.8615
38.3861
44.2613
48.2856
48.2064
44.6766
27.2076
37.7378
37.7365
35.3333
25.5338
35.3457
35.8871
8.37524
58.3125
45.0664
34.0319
34.2544
31.2265
45.0724
45.5211
41.4727
30.6619
44.256
44.1983
30.5481
41.805
8.34978
38.531
28.8799
28.7072
50.3323
50.2916
58.2441
58.1804
56.0913
54.4887
35.158
56.0294
56.3285
56.2617
56.084
53.3368
56.0733
24.0817
56.1132
54.354
54.4232
53.0439
32.1843
54.6455
54.4028
21.0121
21.2687
19.4848
19.001
54.535
28.6385
52.7154
16.8588
17.139
17.4395
51.1377
17.7826
25.7251
52.7738
16.3349
28.2796
15.86
49.0644
25.626
14.6283
14.3452
50.1434
53.0145
14.1149
22.1959
49.5364
14.6265
47.3066
16.655
22.0416
52.8038
12.8506
18.9413
11.6007
36.4126
11.7039
51.1673
18.6964
9.85797
51.4174
9.63809
9.78563
51.165
51.2767
45.0848
51.1906
8.07041
44.4661
51.3436
44.9414
50.3161
50.4757
43.7163
44.9161
44.5455
6.54137
12.6403
4.69401
4.93193
8.10719
12.908
12.7858
49.5706
49.5667
2.42099
9.54427
1.63056
1.41615
47.9211
1.34772
48.0519
21.2466
6.1092
6.01255
41.8809
21.5343
42.1551
-0.155342
21.2276
0.0465089
43.2304
13.9833
40.8221
48.0464
18.5927
56.2048
21.1211
47.8702
11.1167
48.1147
-0.11915
48.2881
39.3856
39.4179
0.325223
40.7758
7.57077
36.6487
46.4084
46.2723
37.6471
55.0098
41.4503
46.3317
40.7219
42.9635
55.8434
31.106
37.9076
29.5284
55.4026
46.5413
46.3005
46.4347
22.0639
6.16176
36.3084
45.0496
18.942
51.5712
48.5325
48.5231
19.0832
36.8985
35.4512
30.1764
35.5471
48.6283
33.0684
48.4797
30.283
18.9378
30.3253
45.7296
2.29983
26.3296
1.57832
26.3754
31.8527
3.42007
2.74714
36.1209
45.3868
45.1282
23.2724
42.3476
27.3431
42.1094
25.7699
20.2918
19.0813
20.5421
41.8565
16.6193
5.25999
42.1726
16.6923
13.9322
30.8491
14.0986
7.05883
14.5998
0.840258
30.6469
20.223
9.84507
32.1546
0.713974
57.5436
9.96276
57.9177
10.5608
57.7412
34.1982
44.6868
24.8346
33.7832
32.5106
35.2477
35.4176
44.9066
3.69742
3.95097
59.2663
59.8054
0.84817
44.6768
21.9061
32.489
59.9585
59.3454
44.7943
22.0677
34.2102
55.8432
32.1988
29.3327
32.8164
56.757
29.1338
28.71
52.732
29.0127
29.8026
49.8123
25.9479
52.6427
46.7051
46.0234
52.4294
25.9664
56.7586
43.5783
56.8086
56.6431
43.317
43.4557
39.9289
40.4471
22.8424
43.0606
23.1013
36.8599
22.4831
25.2645
55.1175
19.3247
19.5767
22.5905
19.5236
19.7197
49.5141
19.2973
55.1233
23.2071
12.3364
49.4861
33.6771
16.2432
15.2491
15.3203
30.8801
47.8838
54.8937
14.259
13.2768
55.2368
24.9684
42.6433
45.9685
23.5343
14.1576
12.7914
23.9813
20.6895
20.3889
15.6717
5.39735
43.1983
55.0547
43.1794
17.3422
20.8495
17.4844
10.162
9.60521
9.78339
6.4781
6.50709
14.3121
11.4984
43.0161
35.3866
9.81078
14.0073
11.0554
11.2478
8.06386
41.642
6.7576
6.43123
20.3593
3.22615
3.07974
44.6358
43.033
8.04965
8.93306
15.846
41.7179
29.547
0.413055
4.30854
-0.0333373
20.8777
-0.196688
51.8852
0.262382
56.7792
8.15222
10.0144
41.1832
6.30522
41.3984
57.6117
56.7344
41.3137
10.5475
57.158
17.999
57.2321
55.1056
41.3017
16.1668
17.4211
39.66
15.4095
55.7513
1.45061
13.1551
55.7564
56.0284
53.6846
54.1154
8.99696
51.7397
39.7927
53.7417
13.9368
44.3383
12.0193
38.1628
38.0899
51.6411
38.0767
51.8871
53.3565
37.9415
38.1429
52.926
50.9411
50.8684
51.9971
51.0489
50.6719
49.1298
4.40038
49.4573
52.0164
50.4685
51.7923
8.16658
50.2714
48.5184
36.5677
29.6801
34.9349
48.5174
50.3351
50.2983
46.042
47.0483
50.2719
15.9284
50.1549
45.9931
45.2668
29.9235
30.0861
31.492
44.4958
42.8858
45.4872
41.4021
27.7832
43.027
43.8196
43.902
27.8641
42.3385
48.4349
5.66613
2.92045
48.7908
6.82252
7.17889
5.00187
3.17623
41.1208
42.1088
5.14161
42.0331
2.73641
48.5859
39.6366
48.8171
41.5748
39.756
28.452
39.3876
1.43169
40.4254
0.421089
28.4754
38.7323
47.1714
47.038
1.30556
39.1052
18.9237
46.9199
1.93179
1.13224
0.488927
39.946
39.9352
25.2563
37.0783
36.425
-0.0312521
36.2244
45.3068
35.5081
39.8003
47.0159
55.1297
36.1565
52.9064
47.2489
34.6957
54.812
34.585
38.2255
13.0218
53.3176
43.7602
33.9421
33.045
34.0759
32.3565
52.1739
32.4551
32.4519
43.9936
32.4083
52.6122
52.1167
48.5329
32.623
31.4355
31.636
50.8992
30.5472
21.777
51.2451
21.7121
30.7793
30.3734
29.8146
43.7719
29.097
29.2541
30.0638
48.6353
43.7957
19.543
47.7378
49.8059
48.3513
48.2234
20.3858
45.1985
50.9465
48.1039
43.6658
38.3382
43.8885
27.6251
25.8106
26.569
26.7729
26.0508
43.297
18.5021
45.8463
44.8259
26.0509
24.7046
25.9073
24.0908
24.0818
43.1221
23.7866
38.3793
23.3771
38.883
23.3234
42.1087
42.2322
0.0722358
36.3031
41.9561
42
40.5153
33.2294
22.7731
38.4735
15.333
15.5312
37.9354
39.108
24.3446
40.3474
40.5445
36.1363
13.925
38.2492
40.5683
40.3811
19.4245
38.927
38.8125
39.0888
39.0826
23.0612
38.2258
10.7105
16.753
38.7687
38.943
17.127
36.4119
16.6255
37.3143
16.3218
16.4007
16.3155
14.2512
37.2752
36.721
15.0389
14.7148
14.359
40.8101
14.4997
13.9043
14.0324
9.38761
13.6784
34.142
31.0504
13.112
9.23079
12.2976
37.3578
11.9229
12.9972
37.5715
12.3839
10.5802
10.5221
11.6455
36.8426
10.6089
7.23699
34.0407
9.69714
10.014
24.5853
7.30358
34.0869
7.73394
35.8642
48.1613
7.60684
7.32815
7.46726
9.88748
7.47127
35.8991
5.71812
5.86544
4.22928
29.7903
6.38373
23.345
35.8598
5.21596
6.80223
36.6008
33.9814
6.60317
36.6958
5.35996
3.89523
35.1915
35.2535
35.1027
2.41411
2.17805
35.0033
38.2242
2.18837
24.9759
34.2034
2.24622
3.17682
24.2414
3.32038
20.0112
3.0771
21.3977
3.55533
18.6542
0.95375
0.574544
35.2502
2.99844
58.846
32.621
32.425
57.6599
57.4704
1.7551
53.5604
58.6828
21.1122
20.437
0.0843927
0.180995
0.124023
19.9432
50.6505
50.8975
50.8325
0.105979
19.709
50.8365
20.3457
59.2056
19.3933
32.6627
47.6853
47.2901
59.3052
6.65491
35.0252
35.1795
30.9057
47.6587
47.7391
30.8748
30.7612
47.0834
14.96
17.2512
30.9658
54.8562
14.0954
46.4316
29.3715
29.2967
43.2005
43.5802
43.4241
54.9245
40.9657
29.2737
41.405
40.8752
29.147
14.4722
37.0823
37.8273
54.7996
37.6698
10.84
54.9817
10.0656
37.9984
10.8385
13.3514
9.23183
54.893
33.5152
46.9739
9.24012
34.7806
46.8616
4.76908
27.555
27.6517
27.9199
34.7343
27.6952
27.6786
27.0915
31.6396
27.8694
32.0446
4.37544
48.1569
26.0599
23.83
26.0361
51.3432
51.6917
25.9395
50.1224
17.3294
28.1134
3.01107
10.1175
49.9624
44.0346
12.033
50.0365
49.9393
31.8724
25.5803
48.4857
48.5592
31.9363
0.329815
31.7696
32.0198
22.0279
21.8034
21.1181
4.49295
48.3199
-0.0713979
46.7956
18.2223
46.7167
18.3959
1.05636
42.9539
14.9634
17.9093
18.9054
38.9537
46.7165
15.3756
31.7927
48.0406
56.8886
50.1085
15.2347
56.7235
53.1972
24.5243
24.3121
45.3189
24.4086
50.0841
44.9117
45.0707
12.0508
45.1483
38.038
46.7314
8.35619
45.1132
8.29479
32.2573
8.46535
30.213
47.0629
31.0396
22.8053
43.6911
29.6304
30.5446
5.56832
20.9912
22.7789
22.7719
22.6609
31.9464
5.86004
30.2636
43.4788
21.0845
41.8764
2.06833
2.76382
21.1807
21.269
8.48385
21.3158
3.08759
41.6088
27.8942
21.0183
30.2554
40.058
58.3038
7.02424
6.41369
4.96552
40.2173
19.3773
19.5209
38.5598
21.4509
0.365217
38.6386
54.38
54.3022
20.9605
54.5057
19.4884
19.806
38.5285
58.5776
17.6162
14.5548
19.8217
38.6403
38.6335
47.5813
19.6973
30.1192
53.4342
11.1477
17.7627
36.8706
44.6952
18.1919
18.084
4.6911
51.9393
4.9968
4.81232
52.5491
37.0024
17.895
38.3863
50.9494
18.0227
18.1694
50.7036
35.4145
35.0957
50.0541
50.5356
35.4229
35.5969
48.363
47.9198
45.9149
43.9362
46.332
16.2085
32.4707
43.765
16.2399
31.8678
44.4735
16.3153
44.1189
28.5506
42.575
33.7765
33.6186
28.2836
16.2142
16.386
25.2567
14.7323
41.6364
14.7071
25.387
41.8092
42.783
41.1255
32.0151
14.5729
32.1817
43.7186
14.8049
13.4056
12.9903
38.6363
34.8847
18.9924
30.5704
19.5359
19.3404
30.5594
15.7084
30.6368
37.0003
30.5591
35.8891
28.7289
15.8506
12.5678
12.5405
12.9499
34.938
13.2313
28.8576
-0.113388
34.3719
9.09272
13.0421
28.7961
8.80212
28.8818
13.2846
6.66554
6.60103
32.3705
31.8757
28.7978
28.6572
27.1933
27.5016
29.465
58.0457
57.8103
27.3323
27.3324
27.2205
11.488
44.4271
25.8933
11.37
27.4112
27.432
25.6585
28.4818
25.5675
27.279
24.0812
25.4263
9.95859
9.88134
23.9217
9.86151
9.73681
23.5999
26.9498
22.5051
22.4952
27.1583
8.0753
8.23692
21.0191
56.7783
25.5752
24.2617
22.9257
20.8613
20.8952
20.9403
8.26604
22.0651
21.0312
17.9287
1.59869
1.57904
18.4533
19.4969
55.7994
21.0302
55.9429
55.8615
19.173
8.2459
17.364
8.44262
8.44705
17.4867
17.5988
16.1646
17.6923
26.9458
19.1471
6.83527
52.7177
16.8599
19.2261
6.80824
17.7172
27.009
26.9167
14.4292
56.9918
59.2495
51.9199
12.4842
11.5132
6.48249
12.6322
19.0923
6.73563
27.0533
10.7919
4.84995
5.03999
4.84093
25.4086
11.8692
9.84944
5.10623
3.38446
15.7741
7.77548
6.95627
3.35978
52.8034
7.81051
6.35277
14.3889
3.35861
4.97636
51.7369
5.71852
53.3425
54.638
4.0775
54.344
56.6238
3.25764
25.2548
44.0386
14.3706
51.9243
1.70237
52.5222
12.8093
12.8197
50.632
56.3521
56.1814
1.61577
12.882
12.6127
43.7891
3.15787
57.1036
1.90526
56.057
55.8636
50.1847
56.7104
57.3177
1.7736
11.1669
11.029
54.7665
11.1674
55.0384
9.78534
54.8073
55.0847
52.7917
-0.00718004
54.6977
51.34
56.2821
23.7119
23.7091
9.66698
0.0372601
0.0470938
49.6033
23.9181
56.2383
48.395
53.2644
8.09109
52.511
8.08919
7.92137
7.92049
51.8402
56.0972
48.3303
45.2544
44.775
1.02112
-0.159617
41.463
51.5972
6.29861
23.6777
6.30413
52.0865
4.90516
52.9755
50.8995
51.0722
52.8761
4.90496
23.8119
40.7261
40.4535
53.4438
41.8956
48.0257
4.7
49.0384
48.8997
49.1981
40.5749
45.711
34.8363
49.6364
3.12517
3.07795
34.677
49.5523
40.5193
40.4779
49.6075
33.5053
34.8568
1.42403
32.4254
35.2046
32.7908
49.5694
49.6151
47.3591
31.4411
47.3995
32.103
11.5524
46.4192
45.314
30.6356
48.3959
29.7224
29.4344
29.9019
28.7057
46.5177
0.146983
-0.101864
-0.144683
27.8802
25.3423
-0.301283
37.35
20.4419
57.412
37.4404
57.0581
47.1953
46.3681
19.7468
46.4202
55.6459
22.7438
46.2325
47.2364
22.2474
46.3765
44.58
20.2082
45.8342
44.0235
55.534
45.077
37.4683
1.78585
5.25074
45.8353
42.7425
18.0469
42.943
43.2807
44.035
43.1247
42.7867
44.7162
43.4659
39.9291
43.3028
44.1783
53.6479
54.1688
52.1159
40.0297
13.8261
0.108141
5.15535
4.98504
19.0021
50.9381
12.8611
42.9898
18.9222
18.7658
11.5492
11.7234
50.5212
9.29432
42.0293
36.7975
9.45751
41.5637
42.1509
48.9184
42.3414
36.6277
41.4461
36.5467
42.1169
41.1146
6.3187
6.89414
42.8723
42.5517
36.7074
58.5457
33.4871
41.3257
47.659
33.5866
9.28951
2.63925
4.33529
58.3464
34.3493
34.2509
42.1525
56.3115
30.2458
40.8676
1.19931
45.3467
40.6597
17.2426
0.216551
0.191144
39.8375
56.5314
30.1211
30.1885
44.0198
30.7381
27.0389
27.1375
57.0709
37.9544
17.3242
42.5409
55.7889
37.8927
17.1858
54.3784
54.1741
37.3358
53.7487
38.875
43.556
54.0967
34.0801
54.9299
51.7177
23.7966
51.2849
37.7302
40.8218
50.5228
23.895
49.1809
41.0263
47.2782
53.3549
53.0492
53.1708
50.3546
34.0343
20.5498
20.6501
36.7044
15.7898
37.46
37.801
31.2164
51.6503
37.6519
50.1209
35.61
37.5969
45.6822
37.738
15.847
40.3529
36.0607
35.9937
35.7007
36.9932
40.2839
35.7005
36.076
17.4357
35.9596
37.8047
34.3352
34.651
36.0574
17.3326
34.7314
34.3361
15.7784
34.4222
48.3215
48.1915
33.8746
15.8396
34.1015
33.0134
33.1681
15.6323
31.9229
46.8868
32.9195
32.8548
46.7757
14.047
29.8905
31.5475
31.1493
30.8764
14.0147
4.53241
30.8143
28.3437
25.6748
25.6633
14.0547
29.7088
26.8729
27.0483
10.7817
10.9503
29.8124
15.6112
31.6206
22.5382
23.656
31.3905
45.064
30.2152
27.8568
31.5298
31.4735
31.8383
27.9016
10.8546
44.9136
30.5433
27.6478
27.5642
27.772
30.2492
26.9309
26.5313
10.3104
25.5231
14.7989
26.2959
17.2958
30.9437
15.558
26.3262
30.3013
31.4274
17.6284
7.54065
14.5952
8.96115
29.2264
7.70875
14.2216
13.962
14.1996
13.9096
29.0185
8.74005
24.6863
24.6599
41.9156
8.46461
8.23404
28.5602
14.0715
27.652
23.4537
21.4327
27.322
7.0413
41.9476
27.5027
12.4953
40.2098
21.3867
4.40082
40.2158
27.5653
3.22028
27.0338
26.8482
27.4327
27.1747
3.1924
12.5523
19.8364
20.2361
27.0679
1.028
25.8749
1.0201
1.03275
58.2993
56.617
26.8647
17.8931
26.427
27.0161
26.8224
56.4064
57.1569
38.7027
18.608
18.2195
38.4771
56.5913
56.5878
16.5464
22.5779
53.3203
16.5348
52.468
53.3813
53.2158
15.0351
53.2195
15.1109
14.9214
46.8177
15.1964
51.4443
26.6562
15.1738
52.8392
50.1791
13.5513
22.9347
49.982
23.2501
50.1474
13.505
49.4737
24.6847
47.9037
22.0843
12.1593
49.9832
22.0434
34.7095
46.8499
22.3321
49.4544
22.7294
45.2723
25.0838
46.9136
46.7487
46.7497
43.1538
43.5957
22.1905
43.7155
43.5073
42.0606
43.4569
10.1461
8.89664
40.5005
42.0972
21.4436
8.90893
38.5606
41.8888
41.2704
8.58228
15.5215
23.2019
16.8357
40.3168
39.3804
40.4047
40.2643
19.035
6.86571
36.0826
7.12481
6.98553
36.8319
41.8845
18.3226
20.5496
7.3148
7.30635
18.839
5.52084
40.1942
18.9097
22.3402
34.6508
5.68793
17.7204
32.7269
37.1493
32.02
18.5021
31.1029
37.2109
5.2768
32.9227
34.891
37.0388
37.0221
31.5653
33.9117
30.0565
34.0313
18.1602
3.09082
3.65373
3.75233
2.15454
33.823
19.7626
33.7729
17.1574
28.8373
20.4795
30.7865
25.7642
25.4246
2.15977
2.06228
30.5868
30.7529
0.414017
30.5904
0.516822
27.5596
27.3626
26.0149
17.9152
27.5278
27.3642
23.6277
21.7255
15.8224
15.4543
15.8537
24.225
24.2858
24.12
16.1549
7.63508
15.8109
24.1236
20.3224
21.0892
20.4033
20.8928
13.526
21.0576
15.6035
13.6924
20.8941
19.5268
13.0891
17.7325
17.8508
18.7833
52.6601
17.6443
12.7764
17.5963
13.95
14.5104
14.6261
13.3189
14.411
51.2537
14.3402
11.2993
11.3629
11.3174
11.1981
9.52944
49.6632
10.5984
11.2406
11.1995
9.68
8.14697
8.84927
16.8882
7.94786
8.11329
7.95185
9.7861
17.2784
4.85322
4.72349
-0.135582
9.94948
16.4751
4.93183
9.84295
4.67282
46.7055
1.59648
5.17736
1.70227
1.8401
8.3052
4.99206
12.5155
2.75958
46.3375
1.53963
1.58647
57.7159
14.7987
37.1791
0.866322
12.3932
57.6101
57.5438
15.2056
7.57338
15.119
6.19533
0.22312
14.3798
14.0047
43.1554
55.689
55.7863
5.4769
55.8346
55.6814
6.13356
56.8161
55.5573
56.0326
12.6426
36.9909
54.2324
41.18
54.2206
54.2027
53.8586
4.14152
54.3707
54.2717
53.8685
39.9286
35.275
9.64807
12.6165
35.0063
52.476
52.3933
52.5756
52.5934
52.6624
36.6757
3.36969
47.9315
3.76684
48.9281
1.19493
36.5559
2.14426
47.4187
52.4495
47.7224
51.1307
4.67758
50.7956
44.9538
0.732978
0.893273
11.4239
42.769
11.3902
58.2219
45.8506
11.4179
11.6095
50.896
51.4177
33.774
49.4959
59.317
49.2024
49.3651
33.389
55.8047
33.4806
56.5197
49.6157
49.8706
12.3726
49.3925
33.5631
38.4701
39.5134
38.9584
31.5911
54.1774
53.673
54.0555
47.6328
9.20474
47.7619
9.07308
47.7783
47.8356
46.2214
12.5062
53.1759
46.1577
46.3546
4.3642
46.3815
35.6001
46.6311
32.0947
51.5195
7.86513
51.1376
7.59903
50.9778
31.9406
30.4499
31.1661
44.5959
44.3437
44.4203
33.7757
32.0429
42.7871
29.2624
42.7159
49.3567
49.6678
4.70168
6.312
42.8902
22.2226
42.944
36.2112
42.8884
41.376
41.1717
5.80444
41.206
22.0108
25.0695
5.90422
24.192
46.7513
34.1036
24.5909
41.1781
30.7284
30.9325
39.5516
39.6784
45.9795
26.2424
39.6889
39.501
38.1425
37.9757
43.4509
37.8751
42.4457
37.8935
44.6003
38.1444
36.3135
43.6447
18.5951
18.5467
17.2473
14.6825
36.455
16.6631
43.7501
10.7939
10.7972
9.31461
34.7349
34.6361
29.0195
13.6732
13.4348
13.504
13.5974
41.3676
9.38847
11.8895
3.00003
33.2575
12.3498
33.3504
33.2285
41.4056
2.49325
33.0911
3.07091
40.087
40.1939
3.11038
33.2882
33.0507
31.6983
31.5273
9.47106
8.66902
10.7238
10.6946
1.88565
8.51146
1.73905
31.4356
1.86244
7.99821
37.9446
9.118
27.1622
9.24662
2.76396
4.17205
9.56091
0.681187
3.16069
7.46731
7.52392
0.774821
35.9294
35.8841
34.6284
0.919092
1.57026
29.9996
1.32605
30.2249
0.461989
30.4644
29.5644
29.9743
28.633
28.2496
58.2617
33.8474
28.3747
53.5096
56.159
28.3957
28.4494
26.9922
53.4847
27.0188
31.9707
26.7677
27.2297
26.8298
55.0086
47.7885
26.4968
54.5912
54.5268
25.0992
1.0396
9.14642
44.2739
54.8782
25.809
25.1425
25.1788
42.5369
53.425
23.5959
53.2208
59.2081
58.5871
24.2597
23.7578
23.757
58.6245
58.6463
57.4194
27.1943
26.8812
23.9531
24.0129
51.5002
51.5041
25.4277
24.0746
21.8295
30.8954
30.6887
21.8827
28.6216
22.3353
21.9778
50.2067
9.13772
27.0404
29.1956
53.5651
24.5329
53.6638
52.1415
49.2348
7.69223
20.9623
48.5821
20.1438
21.7348
24.091
20.2533
23.9002
23.1812
21.3851
48.029
50.4572
47.6704
46.94
14.6493
46.727
50.4849
20.2411
14.6676
14.8034
46.713
11.1543
13.7519
46.8858
19.9212
46.7023
50.3938
9.50267
48.9268
49.169
4.69358
49.311
48.9558
3.73375
10.594
48.8925
20.8564
18.1411
2.60358
47.1031
47.2994
3.67877
20.1772
18.5625
20.8036
45.7971
54.1264
53.3773
45.5732
16.6253
44.6472
18.558
17.129
49.9518
19.3128
50.77
19.1609
43.9961
44.019
16.7922
15.2867
17.0361
42.3889
42.4487
14.4926
42.583
41.2444
17.18
40.6767
17.5269
40.5538
17.7907
39.3844
39.2288
17.2138
39.4645
15.3779
15.5124
39.3364
37.648
28.7963
30.4239
15.3485
15.3127
15.2152
19.1543
9.72329
13.6343
35.9668
9.20451
13.8049
9.59001
34.2606
9.48746
14.0554
14.3149
34.1831
17.4495
36.9884
14.2555
13.8306
11.7567
12.1218
36.9984
37.501
32.8199
12.0846
31.002
30.8104
7.61668
5.10058
31.086
5.44589
29.4711
12.2136
1.72909
12.2298
6.48354
0.77677
35.6576
6.17115
35.7532
12.2871
35.0797
10.6968
4.78536
6.02789
34.9724
10.5187
34.9385
35.0765
55.4126
34.7439
10.7078
52.7655
33.8061
54.4341
27.5906
27.6286
33.746
0.507071
1.47025
1.59212
27.7112
2.02486
52.3525
49.1932
48.8069
10.6049
48.5345
10.3456
10.5781
9.06135
8.89498
8.80404
24.5653
46.6627
17.4962
24.468
24.4889
23.0408
44.3625
17.6056
7.2206
7.14335
43.6251
43.7543
40.3668
42.0509
31.4866
31.3818
23.0987
38.6097
40.0048
7.38076
40.0774
4.8196
38.7367
38.2965
21.3193