/*--------------------------------*- C++ -*----------------------------------*\
  =========                 |
  \\      /  F ield         | OpenFOAM: The Open Source CFD Toolbox
   \\    /   O peration     | Website:  https://openfoam.org
    \\  /    A nd           | Version:  13
     \\/     M anipulation  |
\*---------------------------------------------------------------------------*/
FoamFile
{
    format      ascii;
    class       surfaceScalarField;
    location    "91";
    object      phi;
}
// * * * * * * * * * * * * * * * * * * * * * * * * * * * * * * * * * * * * * //

dimensions      [0 3 -1 0 0 0 0];

internalField   nonuniform List<scalar> 
11276
(
2.04364e-11
1.54884e-11
5.62293e-09
-5.65888e-09
6.06668e-09
-8.85935e-12
-6.09449e-09
3.68252e-11
9.5664e-10
-1.07374e-09
1.17095e-10
5.79591e-09
6.21848e-11
-5.81114e-09
-4.69144e-11
-1.22579e-09
1.22583e-09
-5.91038e-09
6.4505e-11
-9.82837e-11
5.94413e-09
-1.18755e-09
1.17455e-09
1.29458e-11
1.25846e-09
-2.86272e-11
-1.22981e-09
1.20043e-09
-1.20041e-09
4.75421e-11
5.58833e-09
-3.459e-11
-5.60129e-09
5.72406e-09
9.74184e-11
-2.03448e-10
-5.61801e-09
1.1321e-09
-1.11726e-09
-1.48413e-11
1.32683e-09
-1.27927e-09
-5.90328e-11
1.30898e-09
-1.24995e-09
-1.16116e-09
1.16113e-09
-4.97209e-11
6.62373e-11
5.82915e-09
-5.84565e-09
5.16849e-11
-4.84222e-11
-5.75659e-09
5.75348e-09
1.22009e-09
-1.22009e-09
1.44738e-11
1.25078e-09
-1.26525e-09
1.16816e-09
-1.16816e-09
1.1792e-09
3.8912e-11
-1.21812e-09
-1.20604e-09
3.53292e-11
1.1707e-09
-1.25348e-09
1.25348e-09
-1.21123e-09
1.21124e-09
-3.24379e-11
1.25254e-09
-1.26297e-09
9.49926e-12
3.00623e-11
-1.26758e-09
1.2375e-09
1.21163e-09
-1.21164e-09
1.12704e-09
-1.12705e-09
1.18224e-09
-9.91352e-10
-1.90979e-10
1.16546e-09
-1.16548e-09
1.07819e-10
1.21901e-09
-3.11183e-12
6.15112e-09
-8.13382e-11
1.21946e-09
-1.21945e-09
-1.24455e-09
1.24461e-09
-8.32548e-11
5.81433e-09
-5.80729e-09
7.62194e-11
-1.06641e-09
1.09441e-09
-2.79955e-11
-2.88725e-12
-1.21793e-09
1.22083e-09
-6.0409e-09
-1.14511e-11
6.00251e-09
4.98455e-11
1.23473e-09
9.94411e-12
-1.24447e-09
5.53533e-11
1.16138e-09
-1.21673e-09
1.18557e-09
-9.83986e-10
-2.01618e-10
-1.30138e-09
1.12586e-09
1.75451e-10
-3.96239e-11
6.93645e-11
-5.98235e-09
5.95276e-09
-1.22151e-09
1.22151e-09
-8.56392e-11
1.24588e-09
-1.16019e-09
1.14521e-11
1.48186e-11
-6.06717e-09
5.6982e-09
-5.7365e-09
4.83391e-11
-1.00795e-11
-1.29102e-09
1.33372e-09
-4.27011e-11
-1.29284e-09
-2.47101e-11
1.31735e-09
-1.29265e-09
-5.89312e-09
1.99902e-11
5.88457e-09
1.20549e-09
-5.47465e-11
-1.15071e-09
-5.95873e-09
6.3403e-09
-1.86811e-10
-1.94746e-10
1.09916e-10
2.78323e-10
-6.34695e-09
-5.29106e-11
-1.07857e-09
1.1315e-09
-2.12061e-11
-5.87148e-09
2.75301e-11
5.86513e-09
6.47383e-11
6.16427e-09
9.42137e-11
-6.32323e-09
1.24898e-09
-1.07709e-10
-1.14127e-09
1.10567e-09
-5.20482e-12
-1.10049e-09
7.78601e-11
5.60344e-09
-5.65176e-09
-2.95328e-11
1.11992e-09
-1.1198e-09
-5.90044e-09
5.60571e-11
-1.1259e-10
5.95697e-09
-4.37539e-11
-5.97821e-09
5.99349e-09
2.8493e-11
1.22276e-09
-1.2357e-10
-1.09921e-09
-5.94984e-09
-1.32785e-10
6.30544e-09
-2.22534e-10
1.14251e-09
4.23384e-11
-1.18484e-09
1.19547e-09
-1.19546e-09
-5.84965e-09
1.93609e-11
5.81009e-09
2.02263e-11
7.15909e-11
-5.97089e-09
-1.95332e-11
5.91887e-09
1.30261e-09
-4.59734e-11
-1.25663e-09
-1.52515e-10
6.08395e-11
-5.62046e-09
5.71213e-09
7.27448e-11
-4.74822e-11
-5.98271e-09
5.95751e-09
-1.7477e-10
-2.01351e-10
6.34602e-09
-5.96991e-09
-1.20372e-09
-4.7226e-11
1.25094e-09
-1.17765e-09
1.27179e-09
-9.41304e-11
1.24034e-09
-1.24035e-09
1.19826e-09
-1.19828e-09
-1.15169e-09
1.05687e-09
9.4782e-11
1.22387e-09
-1.24657e-10
-1.09891e-09
2.14304e-10
1.01468e-09
-1.22866e-09
-1.10615e-09
1.10627e-09
2.43536e-11
1.25858e-09
-1.28282e-09
7.81685e-11
-1.22956e-10
6.00159e-09
-5.95674e-09
-1.11958e-09
1.13149e-09
-1.19193e-11
-2.60764e-11
1.16525e-09
-1.13915e-09
1.15412e-09
1.23976e-10
-1.27813e-09
1.19064e-09
-1.59845e-12
-1.18905e-09
-3.83145e-11
-5.69048e-09
5.80803e-09
-7.92788e-11
-1.19064e-09
1.24515e-09
-5.45274e-11
6.34032e-09
-6.34032e-09
6.34029e-09
1.12577e-09
-1.12572e-09
-1.26834e-09
1.15973e-09
1.08595e-10
-1.2243e-09
1.22428e-09
1.2234e-09
-1.37551e-11
-1.20964e-09
1.16353e-09
-1.2872e-09
1.23749e-10
1.18267e-09
-1.28232e-11
-1.17019e-09
3.78264e-11
-1.24012e-09
1.20229e-09
-1.12331e-09
1.12328e-09
1.26705e-09
-1.18883e-09
1.15413e-09
-5.95208e-09
3.92644e-13
5.39296e-11
5.89771e-09
1.16785e-09
-1.16784e-09
-4.23288e-11
1.22143e-09
-1.17909e-09
1.26783e-10
-1.28614e-09
1.15947e-09
-1.1898e-09
1.24296e-09
-5.29612e-11
-1.19772e-09
1.19771e-09
-6.16568e-11
1.31512e-09
-1.16514e-09
1.16515e-09
1.15181e-09
-1.1518e-09
-1.19358e-09
1.19363e-09
-1.25331e-09
1.25333e-09
9.33906e-11
1.16649e-09
-1.25988e-09
1.25572e-11
-5.63584e-09
3.09122e-11
5.59236e-09
1.27313e-10
1.16498e-09
-1.29216e-09
4.0596e-11
1.19357e-09
-1.23415e-09
6.00809e-09
2.09301e-10
1.19632e-09
-1.19633e-09
-1.24983e-09
1.77399e-11
1.2321e-09
1.20724e-09
-4.00132e-11
-1.16724e-09
1.12686e-09
-1.30163e-09
-1.20081e-09
2.59469e-10
9.41342e-10
9.90357e-10
2.02176e-10
-1.19251e-09
-1.21361e-09
1.2137e-09
-1.14574e-09
9.30483e-10
2.15227e-10
-9.93718e-11
1.2972e-11
5.9294e-09
-5.84303e-09
1.19172e-09
-2.01375e-10
-1.19827e-09
1.19826e-09
-1.27673e-09
1.22056e-09
5.61911e-11
-1.12509e-10
-1.16418e-09
-1.22056e-09
1.18959e-09
3.09848e-11
-1.1442e-09
1.14421e-09
1.16741e-09
-2.26964e-10
-9.40549e-10
-6.09866e-09
6.09816e-09
4.28276e-11
-4.23955e-11
8.50941e-11
-7.18557e-11
-5.98301e-09
5.96977e-09
-1.23326e-09
1.23322e-09
-1.22797e-10
-5.97858e-09
6.31473e-09
-2.13471e-10
5.87994e-09
-2.66222e-11
-5.91749e-09
6.41512e-11
1.15919e-09
-1.15916e-09
-5.97097e-09
1.05946e-10
5.89965e-09
-3.46139e-11
-7.31604e-11
1.22731e-09
9.55092e-11
-5.99054e-09
-5.67593e-11
5.95181e-09
-1.20406e-09
1.20404e-09
-2.07525e-10
1.21981e-09
-1.01243e-09
-5.86497e-09
6.31953e-09
-6.13585e-09
5.68131e-09
3.17082e-12
-1.23468e-09
1.23142e-09
1.21038e-09
-1.21038e-09
1.27956e-09
-1.21688e-09
-6.2676e-11
-6.0714e-09
6.13361e-09
-3.43738e-11
-2.78268e-11
1.03601e-10
1.2472e-09
-1.3507e-09
-1.28661e-09
1.26302e-10
1.16028e-09
-1.12085e-09
1.12086e-09
-5.97056e-09
-2.19032e-10
-1.26152e-10
6.31583e-09
1.16199e-09
-1.20017e-09
3.81875e-11
1.16878e-09
3.61831e-11
-1.20495e-09
-2.64969e-11
5.93849e-09
-3.20504e-11
-6.04664e-09
6.0199e-09
4.54501e-11
-1.86854e-11
-1.20756e-09
1.2076e-09
1.21927e-09
3.02166e-11
-1.2495e-09
-1.10655e-09
1.20473e-09
-9.81903e-11
4.26723e-11
-1.22002e-09
1.17735e-09
1.23545e-09
-1.13442e-09
-1.01039e-10
5.60005e-09
3.50541e-12
-5.60644e-09
-1.20649e-09
1.2065e-09
2.78768e-11
-1.24892e-09
1.22105e-09
-1.2089e-09
-1.40303e-11
1.22294e-09
-1.1457e-09
-4.42002e-11
1.1899e-09
-1.26706e-09
1.208e-09
5.91428e-11
-6.10602e-09
-6.64642e-11
6.08931e-11
6.11161e-09
-1.16366e-09
1.16365e-09
-1.18765e-09
1.21707e-09
-2.93899e-11
-6.02287e-11
-1.21345e-09
1.27367e-09
-1.25459e-09
1.25456e-09
-2.92049e-11
5.60166e-09
7.76997e-11
-5.65016e-09
-1.20931e-09
1.20933e-09
1.39829e-10
1.13525e-09
-1.27515e-09
-1.20889e-09
-1.25597e-09
1.1185e-09
1.37454e-10
-1.31549e-09
1.13873e-09
1.7674e-10
1.21298e-09
-1.21296e-09
-5.6128e-09
4.73271e-12
5.60536e-09
2.67671e-12
7.11995e-11
-4.72954e-11
-5.97122e-09
5.94729e-09
1.20563e-09
-1.20562e-09
-1.22411e-09
1.22411e-09
5.95369e-09
-5.09482e-11
-5.32541e-12
-5.89739e-09
1.24732e-09
-1.2015e-09
-4.58651e-11
1.32989e-10
1.1288e-09
-1.26168e-09
6.08772e-09
-6.10754e-09
-3.82371e-11
5.8096e-11
1.17563e-09
-1.17561e-09
1.36519e-09
-1.36519e-09
-1.29762e-11
1.37817e-09
-6.3001e-09
-6.30012e-09
6.30012e-09
6.30009e-09
1.15191e-09
-1.28889e-09
1.36996e-10
-3.02391e-11
-1.09507e-09
1.12532e-09
-5.61876e-09
7.00289e-12
4.20149e-12
5.60763e-09
-1.1967e-09
1.19672e-09
-1.70184e-11
-1.2425e-09
1.25953e-09
1.29102e-09
-1.35587e-09
6.48462e-11
-1.22841e-09
1.22843e-09
-1.15181e-09
2.85306e-11
1.15605e-09
-1.15606e-09
1.17648e-09
-5.55301e-11
-1.12094e-09
-5.86539e-11
-1.26323e-09
1.32186e-09
-1.11421e-09
1.11418e-09
1.18383e-09
-1.18382e-09
-3.44472e-11
1.21828e-09
1.2298e-09
-1.22984e-09
-2.60051e-10
-9.10006e-10
1.17011e-09
-4.58312e-11
-1.14223e-09
1.18813e-09
-1.23499e-09
1.23504e-09
2.08732e-11
-1.20636e-09
1.18549e-09
5.88904e-09
4.05173e-11
-5.95618e-09
1.22284e-09
-1.23585e-10
-1.09907e-09
5.88131e-09
6.44052e-11
-5.91868e-09
-2.69558e-11
1.19165e-09
-1.02794e-10
4.42956e-11
5.68331e-09
-5.62476e-09
1.19055e-09
-1.19056e-09
-1.2927e-09
1.27737e-09
1.53122e-11
-5.13631e-12
-1.10826e-09
1.11338e-09
1.22059e-09
-5.14217e-11
-1.16914e-09
-5.59383e-09
-1.77099e-11
5.60363e-09
7.84816e-12
-1.2337e-09
-6.4567e-11
1.29821e-09
-1.24575e-09
3.47031e-12
1.24219e-09
-1.22828e-09
1.22828e-09
-1.31034e-09
8.20479e-11
-5.53419e-11
-1.22149e-09
1.27679e-09
-1.18681e-09
-6.83967e-11
1.25523e-09
-1.20771e-09
1.18586e-09
2.18442e-11
-6.13181e-09
-3.01499e-11
6.11814e-09
4.37639e-11
1.23564e-09
-1.18586e-09
-4.97845e-11
-1.17258e-09
-3.51187e-11
4.12086e-11
-1.28042e-09
1.23923e-09
1.21808e-09
-1.2181e-09
-1.16441e-09
1.24248e-09
-7.80489e-11
-4.8108e-11
1.1949e-09
-1.1468e-09
-6.12382e-09
6.08189e-09
4.50032e-11
1.22634e-09
8.04467e-11
-1.30699e-09
-1.13883e-09
1.13883e-09
-5.61236e-09
3.02404e-12
5.60417e-09
-1.20615e-09
1.20617e-09
1.22413e-09
-1.2295e-10
-1.10117e-09
-1.26739e-09
1.2674e-09
1.23066e-09
-1.23067e-09
-1.26334e-09
1.26334e-09
-1.29428e-09
1.03984e-10
1.19028e-09
6.29906e-09
-6.16331e-09
-5.72964e-09
-1.12796e-09
1.14543e-09
-1.74904e-11
1.22252e-09
-1.2225e-09
-1.2162e-09
1.2162e-09
-1.14183e-10
5.84581e-12
5.97411e-09
-5.86578e-09
1.23412e-11
-1.24327e-09
1.23093e-09
-1.28141e-09
1.28145e-09
1.18574e-09
-1.19997e-09
1.42267e-11
1.134e-09
-1.13403e-09
-1.04596e-11
1.44707e-09
-1.4366e-09
2.13452e-10
5.86814e-09
-6.34151e-09
3.31547e-11
-1.31447e-09
-5.62459e-09
7.25348e-12
4.20829e-12
5.61313e-09
5.89079e-09
3.51284e-11
2.50716e-11
-5.95099e-09
-1.16708e-09
-3.83576e-13
1.16741e-09
-1.31862e-09
1.20443e-09
1.23683e-09
-1.26599e-09
2.91581e-11
-1.1868e-09
9.8558e-10
-9.85577e-10
5.94177e-09
-5.84212e-09
-9.37935e-11
5.61786e-09
-5.54206e-09
-8.18458e-11
6.04512e-12
-2.22595e-12
5.91949e-09
5.68447e-11
1.23732e-09
-1.15007e-09
-8.72778e-11
-2.94272e-11
-5.87183e-09
4.47875e-11
5.85654e-09
1.306e-09
-6.61567e-11
-1.23981e-09
1.21858e-09
-1.2185e-09
-5.99475e-09
-1.07421e-10
5.99153e-09
1.1049e-10
8.54772e-11
-1.25867e-09
1.17325e-09
9.54741e-11
-4.92451e-12
5.83492e-09
-5.92544e-09
-1.26438e-09
1.1859e-09
7.8508e-11
2.65022e-11
1.19611e-09
-1.2226e-09
1.13433e-09
9.23957e-11
-1.22674e-09
1.30111e-09
1.25171e-09
-1.25178e-09
-4.87965e-11
-1.17057e-09
1.21956e-09
-6.3642e-11
-1.12391e-09
-1.17174e-09
1.17172e-09
1.11746e-09
-1.11747e-09
1.22612e-09
-1.22611e-09
9.97388e-10
-1.25478e-09
2.5742e-10
5.89411e-09
4.54331e-11
-5.8637e-09
5.94265e-09
-3.87626e-11
-4.01989e-11
-1.15827e-09
1.15827e-09
-2.77972e-11
-1.21594e-09
1.24369e-09
-1.27035e-09
1.19024e-09
8.01303e-11
-8.06185e-12
6.44526e-11
-5.92e-09
1.1382e-09
-1.23752e-09
-5.99791e-09
5.9585e-09
-5.43621e-11
9.37596e-11
5.93363e-09
-5.98977e-09
4.81262e-11
-5.8132e-09
5.90031e-09
-1.08347e-10
2.1208e-11
-1.22014e-09
1.22013e-09
1.14161e-09
-1.17322e-09
3.16355e-11
2.61578e-11
-1.26478e-09
1.23863e-09
6.05991e-09
4.18106e-11
-6.13826e-09
3.65294e-11
-8.75059e-11
-4.10279e-11
5.83621e-09
-5.70774e-09
-1.09079e-10
5.77448e-09
-5.7546e-11
-5.60792e-09
-5.85892e-09
-6.11438e-09
5.63571e-09
6.33753e-09
-6.9044e-11
-1.19415e-09
1.26317e-09
1.1695e-09
7.53505e-12
-1.17707e-09
-1.16624e-09
1.16629e-09
-1.25757e-09
1.25753e-09
-1.17879e-09
1.17879e-09
1.47221e-09
-1.47221e-09
-1.21556e-09
1.21556e-09
-1.20142e-09
1.20143e-09
-1.23389e-09
1.29842e-09
-6.45521e-11
-1.23388e-09
5.61776e-09
6.3223e-09
-5.81312e-09
-6.12703e-09
5.59839e-09
-2.99692e-11
7.77591e-11
-5.64614e-09
-9.12871e-11
-1.13853e-09
1.2298e-09
-1.4857e-09
4.38412e-11
1.44186e-09
1.3422e-09
7.71439e-11
-1.41935e-09
5.80225e-09
-5.81313e-09
-4.16072e-11
5.24848e-11
1.3422e-09
-1.22594e-09
1.22593e-09
-5.6338e-11
-1.09546e-09
1.20341e-09
7.95695e-11
-1.28297e-09
-5.96863e-09
6.3186e-09
-1.35427e-10
1.37045e-10
2.11023e-10
-6.31675e-09
5.84671e-11
-1.2542e-10
-5.93093e-09
-1.20629e-09
1.2063e-09
-1.15124e-09
1.15123e-09
-5.49362e-11
-5.62391e-09
-8.93363e-11
5.76817e-09
-1.15432e-09
-4.95885e-11
1.2037e-09
6.31862e-09
-6.31862e-09
6.3186e-09
-1.19075e-09
1.18053e-09
1.02031e-11
1.27814e-09
-1.27812e-09
-1.95401e-11
-1.20334e-09
1.22289e-09
9.4534e-11
1.16442e-09
-1.25896e-09
-1.2737e-09
8.12236e-11
1.19248e-09
1.29077e-09
-1.23204e-09
-1.25387e-09
1.29558e-09
-4.16615e-11
1.17601e-09
-1.17601e-09
-1.17606e-09
1.17606e-09
6.00779e-09
1.85225e-10
-1.19258e-09
1.19261e-09
-9.72308e-10
9.72271e-10
-1.20821e-09
1.20819e-09
1.2173e-09
-1.19826e-09
-1.90033e-11
-1.22652e-09
1.22651e-09
-4.37552e-11
-5.64351e-09
5.69033e-09
-3.07111e-12
9.10187e-12
-1.27793e-09
1.27794e-09
1.20604e-09
-1.20606e-09
-1.10065e-09
-1.30552e-11
1.11372e-09
-1.17989e-09
1.17989e-09
6.26109e-11
1.1777e-09
-1.24033e-09
1.24789e-09
-1.17881e-09
-6.90827e-11
6.11472e-11
-1.28708e-09
1.22593e-09
-6.1028e-11
1.26681e-09
-1.20574e-09
-4.44114e-11
-1.20137e-09
1.24577e-09
-5.61653e-09
6.27843e-11
-1.51104e-10
5.70483e-09
-7.35027e-11
-1.15137e-09
1.22489e-09
9.28444e-11
-7.39346e-11
-5.98572e-09
5.9668e-09
-5.72447e-13
-5.74128e-09
5.69281e-09
4.9039e-11
1.25478e-09
-1.58818e-11
-1.23887e-09
1.18559e-09
-1.18487e-09
9.14702e-12
1.17576e-09
4.81543e-11
6.05529e-09
-6.13473e-09
3.1253e-11
1.2213e-09
-1.19286e-09
-2.84427e-11
5.76575e-09
-7.06761e-11
-7.47807e-11
-5.62032e-09
-1.24349e-09
1.2435e-09
-5.70117e-09
-3.59835e-11
5.73677e-09
3.52587e-13
-5.59652e-09
5.61339e-09
-1.97419e-11
2.8553e-12
1.2511e-09
-1.2511e-09
-1.1797e-09
-3.32204e-11
1.21291e-09
1.24324e-09
-5.54893e-11
-1.18774e-09
-1.17971e-09
1.24381e-09
-1.18496e-09
-5.8761e-11
1.20931e-09
-1.2093e-09
-4.40903e-11
1.24571e-09
-1.20163e-09
-6.12494e-09
-3.06279e-11
6.11144e-09
-5.91135e-11
1.31021e-09
1.16284e-09
-1.16283e-09
5.89576e-11
6.1483e-09
-6.11207e-09
-9.52767e-11
1.24122e-09
-1.24122e-09
1.29009e-09
-1.29004e-09
1.98872e-10
9.58581e-10
-1.15752e-09
1.29986e-09
-5.86518e-11
1.21291e-09
8.69522e-11
1.17806e-09
-1.17806e-09
1.2129e-09
-1.02395e-10
5.54547e-11
5.6579e-09
-5.61096e-09
1.23034e-09
-5.46545e-11
-1.17566e-09
4.08573e-11
-6.07943e-09
-8.17141e-11
6.1203e-09
5.93311e-11
-1.75523e-10
-5.87835e-09
-1.25422e-09
1.25421e-09
1.25178e-09
-2.26152e-11
-1.22916e-09
1.15792e-09
-1.15792e-09
-4.96039e-11
7.80921e-11
5.97312e-09
1.14333e-09
8.70111e-11
-1.26343e-09
1.26343e-09
-1.25712e-09
1.589e-11
-1.23708e-09
1.23709e-09
1.16336e-09
6.50267e-12
-1.16995e-09
1.25723e-09
-1.21103e-09
-4.62245e-11
-1.15482e-09
-7.39385e-11
1.2287e-09
-1.21398e-09
1.25276e-09
-3.88085e-11
1.24972e-09
-1.31378e-09
6.40506e-11
-1.26096e-09
1.18135e-09
7.95903e-11
1.1416e-09
-1.14156e-09
-1.24771e-09
1.24771e-09
1.14575e-09
-1.14575e-09
-5.77615e-09
-5.49941e-11
5.78604e-09
4.5058e-11
-1.25522e-09
1.81367e-11
1.2371e-09
-6.77137e-11
-8.36903e-11
-5.62476e-09
1.15027e-09
-1.1502e-09
6.04909e-09
3.01049e-11
-6.1342e-09
-6.04052e-09
-4.0478e-11
6.11486e-09
-3.37956e-11
5.69726e-09
-3.03899e-12
-5.75413e-09
5.99014e-11
-1.76579e-10
1.23349e-09
-1.05687e-09
-5.56268e-11
1.20594e-09
-7.97981e-11
1.21506e-09
-1.13525e-09
1.24642e-09
-1.17451e-09
-7.1899e-11
1.23352e-09
-1.31525e-09
8.17246e-11
1.2357e-09
1.66825e-11
-1.25239e-09
9.76237e-13
5.42965e-11
-5.95968e-09
5.9043e-09
1.20332e-09
-5.39868e-11
-1.14932e-09
3.65026e-11
5.55753e-09
-9.45301e-11
-5.49951e-09
1.23571e-09
1.46162e-09
-1.46163e-09
6.30441e-09
-6.30438e-09
-6.3044e-09
6.30438e-09
5.67328e-09
2.43355e-12
-5.68103e-09
5.31597e-12
1.18259e-09
-1.18261e-09
1.20842e-09
-1.2084e-09
1.66538e-11
-1.25372e-09
1.25984e-09
-5.14076e-11
6.07457e-09
-6.1029e-09
4.50132e-11
-1.22223e-09
2.06462e-10
1.01661e-09
3.55773e-11
-1.16632e-09
1.13074e-09
1.08838e-09
4.3369e-11
-1.13175e-09
-1.25373e-09
2.77936e-11
1.13143e-09
-1.13144e-09
6.09523e-09
-2.18245e-11
-6.11664e-09
4.32148e-11
1.17079e-09
9.02092e-13
-1.1717e-09
-1.25425e-09
1.31694e-09
-6.27051e-11
-5.56967e-11
1.21402e-09
-1.15832e-09
1.10566e-09
-1.18899e-09
5.77519e-09
-5.82546e-09
-5.44735e-12
-5.79617e-09
-5.24234e-11
7.0879e-11
5.77763e-09
-6.02045e-09
6.08919e-09
-2.4078e-11
-4.46628e-11
-7.10784e-11
-1.0716e-10
-5.61795e-09
-1.1561e-09
1.15608e-09
1.17913e-09
-1.17914e-09
-1.11474e-09
1.11482e-09
6.06127e-09
4.01696e-11
-6.1539e-09
1.16336e-09
-3.81966e-12
-1.15957e-09
1.02189e-09
9.40991e-11
-1.11597e-09
-1.25839e-09
1.23322e-09
2.52971e-11
1.25264e-11
6.0765e-09
-7.73549e-11
-6.0117e-09
-8.21597e-11
4.14373e-11
6.12753e-09
-6.0868e-09
3.82278e-11
1.23339e-09
-1.27164e-09
1.18072e-09
-1.28792e-09
1.072e-10
-1.18441e-09
1.18441e-09
1.18072e-09
-4.11787e-12
1.16222e-09
-1.15807e-09
-5.57096e-11
-1.11991e-09
1.17556e-09
-8.82932e-11
1.01199e-10
5.99247e-09
-6.00524e-09
-1.64729e-11
1.25213e-09
1.23102e-09
-1.23102e-09
-2.24429e-10
-5.96792e-09
6.31855e-09
-1.26231e-10
-5.68922e-11
4.34662e-11
-1.16415e-09
1.12068e-09
1.23556e-09
-1.17594e-09
1.13357e-09
-1.16723e-09
3.36614e-11
1.17107e-09
-1.17107e-09
-5.46401e-11
1.14301e-09
1.30646e-09
-1.24132e-09
-6.51193e-11
-1.23757e-09
1.16617e-09
7.14869e-11
-1.24867e-09
1.24868e-09
-1.17159e-09
1.17159e-09
1.14615e-09
-1.25904e-11
-1.16706e-09
-4.64054e-11
1.21346e-09
1.14615e-09
-1.15898e-09
1.15899e-09
5.93109e-09
8.09884e-12
-5.98729e-09
4.81159e-11
-3.78849e-11
6.00341e-09
1.25582e-10
-3.2234e-11
-6.14181e-09
6.11379e-09
-1.2775e-09
2.96993e-11
1.24786e-09
1.17077e-09
8.12755e-11
5.81451e-09
1.11643e-09
-1.11644e-09
-1.16498e-09
1.24614e-09
-1.59231e-11
-1.23391e-09
6.06162e-09
-6.06472e-09
3.54329e-11
-3.23228e-11
1.16806e-09
-1.16807e-09
-2.80992e-11
-1.22432e-09
1.25242e-09
-1.12365e-09
1.12354e-09
-5.71413e-11
-1.13905e-09
1.19621e-09
1.25657e-09
-1.25666e-09
1.11629e-09
-1.10383e-09
-1.24515e-11
1.21407e-09
-1.21407e-09
1.12852e-09
-1.12851e-09
1.03087e-11
-1.18252e-09
1.1722e-09
9.98864e-10
2.57633e-10
-1.23118e-09
1.23116e-09
-1.26047e-09
1.18716e-09
7.33359e-11
-5.26561e-11
-5.79246e-09
7.33837e-11
5.77169e-09
9.76611e-10
-1.02867e-09
5.20418e-11
5.64678e-09
6.29667e-09
-5.81673e-09
-6.12671e-09
3.16782e-11
-3.20678e-11
6.05743e-09
-6.05706e-09
-5.92418e-11
-1.17951e-09
1.23873e-09
1.25911e-09
-1.25911e-09
1.00225e-09
-1.00225e-09
1.14948e-09
-1.14947e-09
1.20862e-09
-3.29819e-11
-5.53869e-11
1.3145e-09
6.05595e-09
-6.15009e-09
4.14485e-11
1.10587e-09
-1.10587e-09
1.4605e-12
-5.96334e-09
5.90764e-09
5.41701e-11
5.64253e-11
5.87171e-09
-2.29257e-11
-5.90523e-09
4.26573e-11
-1.17934e-10
5.6962e-09
-5.62089e-09
1.24767e-09
-1.27904e-09
3.13686e-11
1.18476e-11
1.20945e-09
-1.2868e-09
2.33413e-11
-1.2724e-09
1.23874e-09
3.36633e-11
-1.18264e-09
1.18262e-09
-1.09452e-10
-7.00859e-11
-5.61293e-09
1.25081e-09
-1.25082e-09
6.12218e-09
1.21851e-10
6.75966e-11
-6.31156e-09
6.1127e-09
-5.79193e-11
6.74689e-11
-1.11711e-09
-1.09127e-11
1.128e-09
1.15289e-09
-1.15287e-09
5.67841e-09
-9.39172e-11
3.17661e-11
-5.61626e-09
-1.17258e-09
-1.21433e-09
1.21432e-09
-5.75226e-11
-1.23438e-09
1.2919e-09
-5.76116e-09
5.75895e-09
-5.85718e-11
6.06841e-11
6.09055e-09
5.62272e-11
-3.5488e-11
-6.11125e-09
-5.97494e-09
-2.20781e-10
6.32254e-09
5.99124e-09
6.20182e-11
-1.91412e-10
-5.8619e-09
-3.42691e-11
-5.82115e-09
-3.97102e-11
5.89513e-09
-1.22016e-09
1.22015e-09
1.2521e-09
-1.24281e-09
-9.27371e-12
-1.0881e-09
1.09509e-09
-6.96805e-12
-1.21026e-09
-7.79161e-11
1.28822e-09
-7.83536e-11
5.97424e-09
8.67856e-11
-5.98268e-09
-5.71773e-09
5.62911e-09
-1.93096e-11
1.07916e-10
1.08753e-09
-1.08753e-09
6.02632e-09
-6.10847e-09
1.20902e-09
-1.20903e-09
2.11087e-11
1.1879e-09
-1.21628e-09
-7.73873e-11
1.29367e-09
6.31439e-09
-6.17569e-09
-5.73523e-09
-1.2703e-09
1.30714e-09
-3.68262e-11
1.11634e-10
-5.98903e-09
-7.54874e-11
5.95274e-09
-1.2431e-09
6.32483e-11
1.17986e-09
-1.22565e-09
1.22565e-09
1.1287e-09
-1.11483e-09
-1.38834e-11
-1.27449e-09
1.1658e-09
1.08698e-10
1.15102e-09
-1.15105e-09
-1.27411e-09
2.54417e-11
-1.22022e-09
-6.10316e-11
1.28123e-09
-1.17366e-09
1.17367e-09
-1.12978e-09
1.1298e-09
1.27088e-09
-1.27073e-09
1.15165e-09
-1.08247e-11
-1.14082e-09
-1.16404e-09
1.22848e-09
-1.26147e-09
1.17373e-09
8.77513e-11
1.23554e-09
-1.16353e-09
-7.19696e-11
5.63387e-09
-3.63882e-11
8.09314e-11
3.21416e-11
6.1568e-09
-6.12184e-09
-6.71084e-11
1.23447e-09
-7.63173e-11
-1.15814e-09
4.79696e-11
5.69664e-09
-5.6227e-09
-5.64655e-09
5.59867e-09
7.77133e-11
-2.98563e-11
6.02795e-09
-1.54399e-11
5.0812e-11
-6.06329e-09
-3.19318e-12
-5.83115e-11
5.87467e-09
-5.81314e-09
-1.12699e-09
1.12699e-09
-1.14662e-09
1.1466e-09
6.08012e-09
-1.18045e-10
6.002e-09
-5.99644e-09
-1.25177e-09
1.25177e-09
1.24814e-09
3.14722e-11
-1.27963e-09
1.1559e-09
-1.21421e-09
1.25033e-09
-1.28257e-09
-1.16715e-09
1.16715e-09
1.19243e-09
-1.19242e-09
-3.37502e-11
-3.81864e-11
-5.78665e-09
5.85864e-09
-1.23299e-09
1.23298e-09
-1.02144e-10
-1.25109e-09
1.23103e-09
2.00358e-11
-1.16741e-09
1.25243e-09
-1.20515e-09
4.86862e-11
1.15645e-09
1.19013e-09
1.16409e-10
-1.3066e-09
-2.15714e-11
1.21401e-09
1.10625e-09
-9.02642e-10
-2.03696e-10
1.246e-09
-1.23951e-09
-6.47333e-12
-5.77478e-09
6.5685e-11
-4.17188e-11
5.75074e-09
1.03052e-09
-1.12944e-09
9.88842e-11
-1.17618e-09
1.17618e-09
-1.1622e-09
4.52929e-12
1.15766e-09
1.19797e-09
-4.07966e-11
-1.15721e-09
9.82607e-10
-9.8247e-10
1.17676e-09
-1.27173e-09
9.49651e-11
1.24113e-09
-9.98443e-11
-1.14127e-09
-9.6079e-10
-2.32708e-10
4.76074e-11
9.82992e-10
2.00357e-10
-1.16119e-09
5.59142e-09
-3.39406e-11
-5.60504e-09
4.75262e-11
1.22619e-09
4.62868e-12
-1.25458e-09
1.24995e-09
-1.23848e-09
8.37125e-11
1.15477e-09
-5.48224e-12
1.40812e-11
5.86607e-09
-9.89962e-10
-2.01366e-10
1.19135e-09
1.22096e-09
-1.17325e-09
-4.77215e-11
1.25264e-09
-1.25265e-09
9.91334e-10
2.60733e-10
-1.2521e-09
6.0606e-09
1.17152e-09
-1.17153e-09
5.97454e-09
-6.05526e-09
5.80742e-09
-5.72667e-09
-1.04879e-10
1.22375e-09
-1.11888e-09
1.10458e-09
3.81044e-11
-1.14267e-09
-1.28066e-09
1.28067e-09
1.17215e-09
-1.23749e-09
6.53032e-11
-1.23636e-09
1.23639e-09
1.16546e-09
-1.16191e-09
-3.51733e-12
-5.8077e-09
-1.96501e-10
-6.96186e-11
6.07384e-09
1.12798e-10
5.4053e-11
-1.18563e-09
9.15948e-12
1.17646e-09
-8.81926e-11
-8.41024e-11
-5.88294e-09
-3.03628e-11
-5.77805e-09
5.72023e-09
5.7529e-09
-5.75115e-09
-1.84859e-11
1.66707e-11
1.31333e-10
1.15199e-09
-1.28321e-09
1.1301e-09
-1.11986e-09
-1.0237e-11
5.71249e-09
1.41919e-12
4.43404e-11
-5.75826e-09
-1.21513e-09
1.19204e-09
2.31083e-11
1.25937e-09
-1.25941e-09
1.35336e-11
-1.16927e-09
1.15568e-09
-1.19285e-09
-1.21514e-09
3.83137e-11
1.18349e-09
-1.2218e-09
3.68415e-12
-3.75933e-11
5.74041e-09
-5.70647e-09
1.14009e-09
3.30715e-11
-1.17317e-09
-5.38573e-11
-6.01992e-09
6.11381e-09
-4.00663e-11
-1.26616e-09
1.2392e-09
2.6963e-11
-5.97661e-09
-5.43394e-11
1.20532e-09
6.41908e-11
6.10557e-09
-5.11465e-11
-6.11861e-09
1.18788e-09
-1.13988e-09
-1.23322e-09
-6.43736e-11
1.29768e-09
-1.16337e-09
1.16337e-09
-1.24189e-09
-2.42726e-11
1.12708e-09
-1.00512e-09
-1.21939e-10
1.12708e-09
1.19128e-09
-1.1913e-09
1.16242e-09
-1.24651e-09
-1.57234e-11
1.44489e-09
-1.42917e-09
-3.77322e-11
6.12491e-09
-6.04348e-09
-4.37514e-11
-1.29604e-09
1.25825e-09
1.16243e-09
-1.1949e-09
1.19492e-09
1.15869e-09
-1.15869e-09
1.23579e-09
-1.26587e-09
3.00716e-11
-1.17644e-09
1.17641e-09
-1.22285e-09
1.22289e-09
-1.17986e-09
1.17987e-09
-1.19391e-09
1.19387e-09
-1.29589e-09
1.25135e-09
4.44896e-11
-4.12034e-11
-5.5953e-09
5.60241e-09
3.41024e-11
-5.94775e-09
-1.25417e-10
-2.11876e-10
6.28519e-09
-1.28205e-09
1.24818e-09
3.38912e-11
-1.24012e-09
-1.82025e-11
1.18471e-09
-1.18471e-09
6.10297e-09
1.62297e-10
-6.32983e-09
6.45456e-11
1.17399e-09
-1.17397e-09
-3.19132e-11
-5.67398e-09
5.62683e-09
7.90741e-11
-1.16194e-09
-4.01846e-11
1.20212e-09
1.1357e-09
-1.17946e-09
9.99554e-12
2.5979e-11
-6.13672e-09
6.10091e-09
2.36435e-11
-1.27541e-09
1.1702e-09
-1.17023e-09
-1.24802e-09
1.25807e-09
-2.01969e-10
-5.96603e-09
-1.76062e-10
6.34407e-09
-1.11959e-09
-6.82653e-12
5.67429e-09
-5.72327e-09
5.57586e-11
-1.33206e-09
1.30407e-09
2.79889e-11
1.24799e-09
-1.248e-09
-5.75163e-09
-5.08591e-11
5.74975e-09
5.26953e-11
2.62267e-11
1.21682e-09
-1.25134e-09
3.4534e-11
-5.40947e-11
1.30208e-09
1.15488e-09
-1.47954e-11
1.20171e-09
-1.24511e-09
4.3353e-11
-1.16415e-09
1.16415e-09
-5.6055e-09
8.49433e-11
-1.7114e-10
5.69172e-09
1.25914e-09
-1.25914e-09
-6.15199e-09
2.58475e-11
1.17802e-12
4.5416e-12
-5.62584e-09
7.9829e-12
5.6133e-09
-1.20312e-09
1.17121e-09
1.1549e-09
1.14243e-09
-1.36228e-10
-1.00633e-09
1.22118e-09
-1.22119e-09
1.1424e-09
-1.18557e-09
1.18553e-09
1.17347e-09
-1.17348e-09
-7.24123e-11
-1.85608e-11
-6.08257e-09
6.17354e-09
-1.87836e-10
-5.60733e-09
9.39508e-11
-1.25634e-09
8.34203e-11
1.17292e-09
-5.77245e-09
-4.22833e-11
6.62142e-11
5.74846e-09
1.21315e-09
-1.21314e-09
1.15859e-09
-1.09212e-10
-5.81433e-11
-5.60512e-09
-1.16163e-09
1.16162e-09
-1.2382e-09
-6.37997e-11
1.302e-09
-4.15047e-11
-7.24969e-12
5.97985e-09
-1.23819e-09
-1.25461e-09
1.18103e-09
7.35744e-11
1.18032e-09
-1.18468e-09
4.35019e-12
1.24328e-09
-2.58497e-11
-1.21744e-09
5.97281e-09
-5.89115e-09
-1.03763e-10
2.20226e-11
1.20927e-09
-1.20474e-09
1.23314e-09
-1.25274e-09
1.9601e-11
-1.13609e-09
1.21708e-09
-8.09652e-11
-9.8115e-10
9.81174e-10
1.23315e-09
1.1981e-09
-1.1981e-09
1.11489e-09
1.3017e-10
-1.24469e-09
-1.25719e-09
1.2572e-09
5.84422e-09
5.27744e-11
1.10512e-10
-6.00727e-09
-5.4647e-11
6.30169e-09
-5.94358e-09
-5.98397e-09
1.12202e-09
-1.12205e-09
2.07249e-11
1.25277e-09
-1.27323e-09
-4.98258e-11
-1.28993e-11
1.15943e-09
8.95564e-11
1.18037e-09
1.79272e-11
-1.19831e-09
-1.26603e-09
1.24453e-09
2.14187e-11
-3.91332e-11
-5.62723e-09
5.73906e-09
-7.27093e-11
2.01846e-11
-1.25121e-09
-6.26714e-11
-1.17406e-09
1.23669e-09
-1.23651e-09
1.19831e-09
3.81572e-11
-3.1921e-11
4.20466e-11
5.66316e-09
1.17764e-09
2.71714e-12
-6.08494e-09
6.17464e-09
-7.18001e-11
-1.26462e-09
1.26465e-09
-5.73388e-09
-6.17064e-09
6.29924e-09
5.60529e-09
4.46539e-11
-1.31397e-09
1.26922e-09
-1.00653e-10
-1.1608e-09
1.36082e-10
-1.251e-09
1.17362e-09
9.55952e-11
-1.26919e-09
-3.60907e-11
4.71097e-13
-5.69823e-09
1.18292e-09
1.80701e-11
-1.201e-09
-1.22728e-09
1.22728e-09
-1.92237e-11
4.1828e-12
-5.61077e-09
5.62585e-09
-1.18954e-09
1.18944e-09
7.60058e-11
1.15254e-09
-1.22857e-09
-1.19167e-09
-7.08668e-11
1.26257e-09
1.17006e-09
-1.17441e-09
4.35692e-12
-1.27651e-09
1.32605e-09
-4.95088e-11
-1.12096e-09
1.10711e-09
1.3803e-11
5.96667e-11
-1.20921e-09
1.14955e-09
-1.24366e-09
1.23132e-09
1.23645e-11
-7.27556e-11
-1.14569e-09
1.21844e-09
3.82362e-11
1.95413e-10
-6.20855e-09
1.16894e-09
-1.16893e-09
1.1236e-09
-1.23304e-09
-5.948e-09
-1.9961e-10
6.27901e-09
-1.19013e-09
5.20608e-11
1.13802e-09
-5.02149e-11
-6.089e-09
5.89081e-11
6.08039e-09
9.27361e-11
-8.28339e-11
-5.98085e-09
3.03669e-12
-1.30944e-09
-1.21627e-09
-4.49747e-11
-1.1399e-09
-1.14995e-09
1.14995e-09
4.38425e-11
-1.30132e-09
1.28695e-09
-1.17533e-09
-7.18948e-11
-6.08066e-09
-1.25665e-09
1.25666e-09
5.76941e-09
-5.60377e-09
-5.68797e-11
-1.08753e-10
-4.07452e-11
6.4545e-11
5.74562e-09
-6.67338e-11
-1.20775e-09
1.03345e-09
-1.13166e-09
9.82161e-11
-1.22673e-09
1.22673e-09
-8.67751e-12
8.23347e-12
-5.71147e-09
-1.57849e-11
5.71899e-09
-1.29128e-09
1.29132e-09
-1.27649e-09
8.17486e-11
-1.30849e-09
-9.94611e-10
-1.35137e-10
9.33732e-12
1.11613e-09
-1.12547e-09
-5.68267e-09
-1.54808e-11
9.43847e-11
-2.6677e-11
-1.22097e-09
1.24769e-09
1.16983e-09
-1.16981e-09
1.2504e-09
3.60611e-11
-1.28647e-09
-6.044e-09
6.11854e-09
-3.54869e-11
-3.90519e-11
1.10564e-09
-1.1437e-10
2.42139e-10
9.78281e-10
-1.22036e-09
1.10561e-09
1.09154e-09
-1.12979e-09
3.82671e-11
1.1792e-09
3.38717e-11
-1.20545e-09
1.16952e-09
9.67651e-12
1.57792e-10
1.17518e-09
-1.17519e-09
2.8944e-11
-1.2445e-09
9.26791e-11
5.99656e-09
-6.12394e-09
3.47163e-11
-3.5753e-11
-1.25541e-09
1.29116e-09
1.1679e-09
-1.1679e-09
5.61688e-09
7.53494e-11
-1.90589e-11
-5.67318e-09
2.11337e-11
1.25074e-09
-1.27188e-09
1.11492e-09
-1.24336e-09
1.24339e-09
-1.20567e-09
1.20565e-09
-1.25754e-09
1.2575e-09
1.09022e-09
-1.13413e-09
4.39082e-11
-1.26011e-09
2.58378e-12
-5.58575e-11
-5.78037e-09
4.51668e-11
5.7911e-09
1.17193e-10
5.80431e-09
-6.00237e-09
8.07646e-11
4.46834e-11
-5.96715e-09
5.92338e-09
-1.25975e-09
9.27514e-11
1.16696e-09
-6.05108e-09
6.13057e-09
-3.60579e-11
-4.34391e-11
-1.21005e-09
-6.11337e-11
1.27117e-09
1.25529e-09
-1.21056e-09
-3.51631e-11
8.03748e-12
-5.71885e-09
5.74596e-09
-1.16722e-09
5.84594e-09
7.38241e-11
-5.99811e-09
-5.80879e-09
7.41647e-11
5.82731e-09
-1.15888e-09
1.15887e-09
-6.10501e-09
5.65672e-09
6.30975e-09
-5.8614e-09
-6.05551e-09
-4.02573e-11
3.39717e-11
6.06175e-09
1.12169e-09
-2.19857e-11
-1.09972e-09
-1.03269e-09
4.77895e-11
9.84967e-10
1.233e-09
-1.23293e-09
1.24846e-09
1.41168e-11
-1.26259e-09
3.62399e-11
-6.13641e-09
6.05785e-09
1.21118e-09
1.2212e-11
-5.9826e-09
6.30066e-09
-3.40051e-11
5.62812e-09
7.98723e-11
-5.67397e-09
-1.17723e-09
1.17724e-09
1.2052e-09
-1.13153e-09
-7.36219e-11
2.10858e-10
9.44585e-10
-1.15543e-09
-5.12817e-11
1.28433e-09
1.36202e-12
1.32273e-09
-1.32273e-09
5.61998e-09
-3.69396e-11
5.73996e-11
-5.64039e-09
3.96888e-11
1.21836e-09
-1.25803e-09
1.18768e-09
-1.22491e-09
3.72012e-11
7.18662e-11
1.21268e-09
-1.28458e-09
-1.20954e-09
1.20955e-09
1.12105e-09
-1.15056e-09
2.95188e-11
5.95773e-09
-5.96695e-09
-7.61296e-11
8.52343e-11
-1.27006e-09
-2.60074e-11
5.61468e-09
8.46718e-11
-1.9527e-11
-5.67987e-09
1.25006e-09
-1.25007e-09
-4.8188e-11
6.09515e-09
-6.10523e-09
5.83137e-11
1.16845e-09
-1.12105e-09
-4.74393e-11
-1.21161e-09
1.21159e-09
-1.28827e-09
1.25387e-09
3.44484e-11
-8.02516e-12
5.75039e-09
5.84677e-11
-5.80082e-09
5.84473e-09
-6.01286e-09
-6.08305e-11
6.17349e-09
-1.2857e-09
1.3145e-10
1.15422e-09
-4.38574e-13
1.16833e-09
-1.1679e-09
-5.71359e-09
5.63187e-09
9.5647e-11
-1.40183e-11
6.19865e-09
-6.12963e-09
-6.09098e-11
-8.10869e-12
-5.76417e-09
6.3145e-09
5.64831e-09
-2.42353e-09
2.47171e-09
-4.81724e-11
-1.26254e-09
1.26255e-09
-1.16338e-09
1.16338e-09