/*--------------------------------*- C++ -*----------------------------------*\
  =========                 |
  \\      /  F ield         | OpenFOAM: The Open Source CFD Toolbox
   \\    /   O peration     | Website:  https://openfoam.org
    \\  /    A nd           | Version:  13
     \\/     M anipulation  |
\*---------------------------------------------------------------------------*/
FoamFile
{
    format      ascii;
    class       volVectorField;
    location    "91";
    object      U;
}
// * * * * * * * * * * * * * * * * * * * * * * * * * * * * * * * * * * * * * //

dimensions      [0 1 -1 0 0 0 0];

internalField   nonuniform List<vector> 
7241
(
(2.05276 0.0103357 -0.0486254)
(2.31784 0.0119415 -0.0262612)
(0.873147 -0.00773651 0.111289)
(2.44662 -0.0132403 -0.0662635)
(0.816554 0.14384 0.030742)
(2.41101 -0.00699692 0.00785744)
(1.07887 0.0752011 0.0539359)
(1.07659 0.0552018 -0.0384809)
(0.78076 0.0341861 -0.0534987)
(2.15212 -0.00915064 -0.0324279)
(2.41497 -0.0162325 -0.0776745)
(1.02481 0.0856719 0.0549361)
(1.09785 0.0420887 -0.0179045)
(1.11463 0.0430621 0.0410976)
(0.774261 0.0213629 0.0267247)
(2.46289 -0.0688612 -0.0130978)
(2.24678 0.0186809 -0.011025)
(0.805063 0.0193955 -0.0148795)
(1.14082 -0.0487786 0.0925157)
(0.783134 0.0250394 0.0457686)
(1.07611 0.045212 0.0591332)
(1.08276 0.0597003 0.0721525)
(0.829515 0.0360862 0.012097)
(0.798317 -0.0463626 0.0332547)
(1.06848 0.0342895 -0.0261517)
(1.12695 0.0843451 0.0287874)
(1.12704 -0.0384023 0.0716993)
(0.801109 0.0132726 -0.0137322)
(0.749537 0.0784597 0.0201981)
(0.871149 -0.072386 -0.0371128)
(0.769421 -0.00723797 -0.0104884)
(1.12178 0.0211086 0.0473913)
(2.47118 -0.0190252 -0.0452925)
(0.798469 -0.0116282 0.00617853)
(0.853642 0.00148386 0.0459932)
(2.44682 -0.0405475 -0.0304508)
(0.990878 0.0552931 0.0888095)
(1.10505 0.0584647 -0.071883)
(2.27735 -0.073177 -0.0109944)
(1.10001 -0.00816207 0.0610883)
(1.08547 0.0765901 0.0288132)
(1.01211 0.213213 0.0518239)
(1.05659 -0.0306973 -0.00375535)
(2.50703 0.00450256 -0.00710843)
(0.806899 0.039302 -0.0426641)
(1.01175 -0.00682562 0.0421747)
(2.49939 -0.0930225 -0.0205732)
(2.1496 -0.00360396 -0.0589352)
(1.11376 -0.00837278 0.0485598)
(1.15009 0.0476886 0.0110102)
(0.86436 -0.0655757 -0.049644)
(2.43318 -0.0913554 0.0113724)
(1.00736 -0.00704496 0.0346709)
(1.9794 -0.135787 -0.00885464)
(2.61391 -0.0883525 0.00659552)
(1.00912 -0.0873349 0.0455871)
(2.42548 -0.0807747 0.00682233)
(2.5296 -0.0285278 -0.0615526)
(1.03117 -0.0391737 0.0227714)
(1.02328 0.0734244 0.0916251)
(2.15874 -0.0252797 -0.0349317)
(0.717651 -0.018516 -0.036201)
(2.39029 0.000683887 0.0110759)
(2.24309 0.000313133 -0.0108055)
(1.06874 0.0858003 0.118045)
(1.97129 -0.117424 -0.0192707)
(0.982414 -0.0147446 0.103746)
(0.800809 0.154855 0.0351022)
(2.43092 -0.0183431 -0.100705)
(2.50033 0.0235289 0.000222744)
(1.08776 -0.00856092 0.0480207)
(2.36755 -0.0148635 -0.0492555)
(2.50399 0.00801757 -0.00964391)
(1.96482 -0.137787 -0.026927)
(1.06344 0.0264091 -0.0145098)
(1.0487 0.0281395 -0.0357326)
(0.8215 -0.0175383 0.0177807)
(0.778129 0.0245801 -0.0490016)
(1.03355 0.103921 -0.0258821)
(1.0651 0.0878881 0.11803)
(0.932727 -0.0226768 0.189076)
(0.706767 -0.0217968 -0.0349034)
(1.14231 0.0364307 -0.0538913)
(2.28991 -0.00350683 0.0496957)
(0.970186 0.0346376 0.0269517)
(1.04054 0.0407551 -0.0662227)
(1.08472 -0.0538829 0.047196)
(1.08558 0.0553697 0.100964)
(2.32196 0.00633699 -0.0578674)
(1.06534 0.0291682 0.0595436)
(2.53731 -0.0287933 0.0311751)
(0.722394 -0.018 -0.0356798)
(1.09909 0.00777604 0.0949749)
(0.806594 0.0348249 0.0881281)
(1.05051 0.0399608 -0.0435629)
(1.09256 -0.0540391 0.0470462)
(1.04437 0.110848 0.0553854)
(1.09525 -0.0330914 0.0567832)
(0.740872 0.0418894 0.025547)
(1.08328 -0.0446127 -0.116927)
(0.760752 -0.0625906 0.0245476)
(2.48883 -0.0522159 -0.00205963)
(0.774049 -0.00767313 -0.0100348)
(1.02521 0.047232 0.0171625)
(1.09746 -0.0632517 0.0523558)
(1.04436 -0.0686105 -0.0722049)
(0.796458 0.0198929 0.0331519)
(1.12755 0.0303259 0.0305756)
(0.764649 -0.0217616 0.0041982)
(0.77383 0.0239603 0.0204204)
(0.79132 0.153411 0.0097761)
(0.821678 -0.0210075 0.0265538)
(1.10862 0.0243431 0.0916986)
(2.04373 0.00901101 -0.0247019)
(1.10366 -0.0641167 0.0495496)
(1.07357 0.039685 -0.0162346)
(2.2196 0.0275247 0.1041)
(0.831858 0.000966566 0.0715203)
(1.12736 -0.0481426 0.0879547)
(1.01465 0.0480116 0.0176009)
(1.05668 -0.0300476 -0.00398159)
(0.927741 0.190917 -0.0479233)
(0.924728 -0.0471747 0.153288)
(0.790237 0.0285227 -0.0510866)
(0.851868 -0.0572274 0.169163)
(2.35396 0.0279738 -0.0572591)
(1.0165 0.213016 0.0504655)
(0.79226 0.0380865 -0.0358149)
(1.17508 0.084489 0.118961)
(1.13378 0.116123 0.0550688)
(1.02193 0.0222894 0.109358)
(0.752547 -0.0772511 0.0284622)
(0.981103 0.213606 0.036955)
(2.32688 -0.0363179 -0.0524845)
(2.51551 0.00885043 -0.0102628)
(0.805341 -0.000106386 0.0177321)
(1.98198 -0.127764 -0.0437541)
(2.46605 -0.0356717 0.0186604)
(0.767795 0.0256838 0.0392666)
(2.32765 -0.000621223 -0.00256864)
(0.995941 -0.00956928 0.0333089)
(2.54162 0.0217632 -0.014548)
(0.796549 0.0192055 0.0289725)
(1.05204 0.223859 0.06496)
(2.5607 -0.0250552 -0.0857389)
(1.09345 -0.00420323 0.0637682)
(0.797721 -0.0448454 0.0424714)
(1.06228 0.010196 0.0104068)
(2.23144 -0.0199595 -0.0601511)
(1.16833 0.0650027 -0.00521889)
(1.09691 -0.0641067 0.0517006)
(0.718943 -0.0181102 -0.0365303)
(1.96468 -0.127361 -0.0409702)
(0.988461 0.0408345 0.0689484)
(1.06806 0.049405 0.0654986)
(2.13008 -0.0389734 0.0331799)
(2.28895 -0.0127025 -0.0651837)
(0.818218 0.000382411 0.0524792)
(1.11833 -0.0459331 0.0819654)
(1.05223 0.0754994 0.0983056)
(1.0835 0.0653915 0.0545323)
(1.04196 0.058344 0.0141752)
(2.05844 0.0292217 -0.0199683)
(0.797415 0.0125654 -0.0131925)
(1.11605 -0.0408686 0.0816354)
(1.05129 0.0435976 -0.0444592)
(0.998899 0.0427905 0.0365316)
(1.17759 0.0913702 0.133433)
(2.33207 -0.0321046 -0.046708)
(0.766391 -0.0217266 0.00422915)
(1.0158 0.0505262 0.0787296)
(1.07165 0.0271954 0.0392382)
(0.849242 0.0336771 -0.0444206)
(2.15892 -0.0251958 -0.0346259)
(0.800373 0.0375636 -0.0289989)
(1.06913 -0.0530171 0.0221792)
(0.799941 0.0414982 -0.0303283)
(1.04177 -0.0272177 0.0162322)
(1.06688 -0.0301298 -0.00668295)
(0.804821 0.033705 0.0423821)
(2.06019 0.0298788 -0.0196279)
(2.49848 0.0051322 -0.00988504)
(0.796819 0.0206054 0.00320017)
(0.806009 -0.00116924 0.000131177)
(2.16633 0.000906546 -0.0264004)
(1.0617 0.0277908 -0.0157963)
(1.04863 -0.0253232 0.0190316)
(2.31808 -0.0225203 -0.0631152)
(0.788974 0.0292104 0.046983)
(0.928513 0.0301852 0.0236173)
(1.17072 0.0446227 0.027718)
(2.53238 0.00275734 0.0219042)
(1.06571 -0.0209814 0.00872662)
(1.0067 -0.0743715 0.0503523)
(2.05933 0.0281608 -0.020385)
(0.771189 -0.0029738 -0.0329058)
(1.10962 0.0262983 0.0919783)
(1.19476 -0.0253807 0.076248)
(0.812 -0.0182956 0.0195506)
(1.04215 0.064065 0.0736039)
(0.770221 0.00239044 0.0426089)
(1.00339 0.040136 0.0598333)
(1.12432 0.0408199 0.0415695)
(0.730041 0.0558233 0.12195)
(0.786285 0.0389229 0.0374821)
(1.03402 0.0451193 0.0455582)
(0.812133 0.000937646 0.0477084)
(0.977664 0.231769 0.0382782)
(0.986159 -0.0810573 -0.065024)
(0.809011 -0.0329866 0.042096)
(1.09111 0.0537 0.0799868)
(2.47022 -0.0121344 -0.00333696)
(1.06869 0.0858191 0.1181)
(2.46648 -0.0357033 0.01889)
(0.792534 0.147711 0.0220681)
(2.3569 -0.0330744 -0.02113)
(0.787684 0.00521729 -0.0413228)
(1.13174 -0.00169718 0.0495572)
(1.03228 0.0765042 0.0926392)
(1.03582 0.042331 0.0363274)
(2.03642 0.0366975 -0.0450411)
(1.10594 0.0307289 0.0312492)
(1.1103 0.0447672 0.089324)
(0.806139 0.00639336 -0.0207384)
(1.10382 0.015732 -0.00359174)
(1.08093 0.0504081 0.0341178)
(1.12081 0.105503 0.0710529)
(1.09132 0.0550909 0.0819509)
(2.32908 -0.0170054 -0.0738049)
(1.04305 0.0331569 0.0424346)
(1.0357 0.0379289 0.0515606)
(1.12864 -0.0371228 0.0555463)
(0.793917 0.0284088 -0.051183)
(1.02452 -0.0935748 -0.07927)
(1.00256 0.0464973 0.0167289)
(2.32046 0.0122013 -0.0366256)
(1.17206 0.0400492 0.10061)
(0.744954 -0.00806492 -0.0287026)
(2.05957 0.029216 -0.0195855)
(0.795683 0.0339285 -0.0416567)
(1.06971 0.0858285 0.117588)
(0.844059 -0.0290775 0.0322221)
(0.813855 -0.0181593 0.0195011)
(0.845868 0.0392357 0.0273892)
(1.13047 0.0219796 0.0865267)
(2.56613 -0.0412533 -0.0752705)
(0.977231 0.0364477 0.0205668)
(0.815925 0.0246491 0.040126)
(0.804428 0.0178746 -0.0164616)
(2.37401 -0.0292978 0.0140301)
(1.09738 -0.0075099 0.0586269)
(0.864334 0.0546594 -0.0519218)
(1.0794 0.0810851 0.041651)
(0.748765 0.0525019 0.0331885)
(1.22481 -0.045419 0.0224748)
(2.08445 0.0884842 0.00883591)
(1.17752 0.0550964 -0.0640319)
(2.06133 0.0286309 -0.0203856)
(2.43048 0.000769827 0.00462819)
(1.06501 0.0873019 0.0617582)
(1.14181 0.0898445 -0.00481603)
(1.13037 -0.0359523 0.0733215)
(0.78869 0.14676 0.0233374)
(0.638815 0.0656381 -0.00830969)
(2.3554 -0.0550689 -0.0131912)
(2.24013 0.0213435 -0.0423356)
(2.49768 -0.0459116 -0.00116384)
(1.00334 -0.00909477 0.0479657)
(2.2304 -0.00957424 -0.0393631)
(1.08347 -0.0106921 0.0444643)
(0.8142 0.157691 0.0321508)
(2.5541 0.0126458 -0.0266929)
(1.09045 -0.00108318 0.062113)
(2.20342 -0.000572152 -0.00827368)
(1.07692 0.0102556 0.0298847)
(0.808871 0.0294417 0.0853452)
(1.09715 -0.0592218 0.050708)
(1.0884 0.102775 0.0255558)
(1.06666 -0.00856152 0.00334072)
(0.840847 0.0380214 -0.0445153)
(1.01373 -0.00128953 0.0329814)
(1.01003 0.0518466 0.0355922)
(0.773255 0.0391704 0.0289925)
(0.748452 0.0552381 0.00208732)
(0.809966 -0.0462343 0.0452785)
(0.984547 0.179319 -0.0398226)
(2.49125 -0.0706094 -0.00375405)
(2.12055 -0.0413725 0.0164306)
(0.770246 0.036389 0.00129648)
(1.06366 0.0340206 -0.027925)
(1.07678 -0.00973367 0.0200204)
(2.47424 -0.0356494 0.00282705)
(1.08074 -0.00998736 0.0881541)
(2.54576 0.0229453 -0.0128454)
(2.49007 -0.00699935 -0.00200557)
(2.13948 -0.0179569 0.0123712)
(0.828512 0.0504562 -0.0670515)
(0.968361 0.0402495 0.0732626)
(1.13948 -0.0482493 0.0853072)
(2.55033 -0.0531672 -0.0243788)
(2.29914 -0.0625717 0.0139391)
(2.27818 -0.0355946 0.00818334)
(2.55808 -0.0252226 -0.0778236)
(1.06871 0.0249762 0.0315338)
(1.06607 0.0410671 0.0765073)
(0.792409 -0.00732339 0.0425641)
(0.831235 0.0325068 0.0813799)
(0.785134 0.0231288 0.0197231)
(1.01414 -0.032683 0.0077321)
(0.801374 -0.0597765 0.0607455)
(0.794889 0.0182043 0.0298968)
(1.10609 0.0307187 0.0312258)
(0.819952 0.0122034 0.0345274)
(2.54738 -0.033565 -0.0813227)
(2.15775 -0.0250539 -0.0349949)
(1.0495 0.0572211 0.0150146)
(1.30105 -0.0560979 -0.0157069)
(1.23564 0.0133923 0.0713021)
(2.45239 -0.00761873 -0.0937904)
(0.916208 -0.00899548 0.0362296)
(0.808313 0.00331475 0.0157863)
(0.984142 0.038791 0.0603919)
(1.08348 0.0179361 -0.00529009)
(1.97661 -0.116446 -0.0257375)
(2.56671 -0.0493792 -0.00197993)
(2.29013 0.0205386 0.0514648)
(0.802301 0.0364615 0.0244344)
(0.759589 -0.0699773 0.0255604)
(2.27243 0.00269774 -0.05574)
(1.0703 0.0617923 0.0987163)
(2.53712 0.00606066 0.0132856)
(1.077 0.0427178 0.0757532)
(0.852748 -0.0291506 0.0311431)
(1.04694 0.0347436 -0.0367709)
(1.10369 0.0209266 0.086278)
(1.12983 0.0293296 0.0886219)
(1.1029 -0.0518048 -0.100531)
(1.09084 0.0485835 0.0716876)
(0.788975 0.0307386 0.0467939)
(0.790652 0.0460893 -0.07711)
(2.22786 0.0530462 0.0899297)
(0.798366 0.0320861 0.053295)
(0.624004 0.0398058 0.104018)
(0.809142 0.0392319 0.0363255)
(1.01772 0.0478289 0.0813897)
(0.804165 -0.0405439 0.037744)
(2.11008 0.0124684 -0.0247539)
(1.11518 0.0845018 0.0651688)
(0.860524 -0.042357 0.0775108)
(0.793773 0.0512772 -0.0546761)
(1.01479 0.0602738 0.0863334)
(0.792442 0.0280457 0.0480464)
(1.10639 0.0332209 0.0820921)
(1.02873 0.0138642 0.0106843)
(1.13792 0.0217689 0.0753888)
(1.04949 0.0114567 0.0152658)
(1.05418 0.0126411 0.0441973)
(2.36578 -0.0107778 -0.0487756)
(1.02572 0.0201917 -0.00415303)
(2.51638 0.0228914 -0.0112422)
(2.3965 0.000551277 -0.0587744)
(1.10634 0.0279618 0.0926702)
(0.787238 0.14788 0.0232496)
(1.07253 0.0422277 0.0762362)
(2.52153 -0.0482267 -0.0301223)
(1.04079 0.0353286 0.0348692)
(2.30928 -0.0448677 -0.0103921)
(0.838199 0.0399221 0.0194802)
(2.06225 -0.0312728 -0.0448839)
(2.0409 0.0429191 -0.0477022)
(0.830275 0.0130457 0.0359834)
(1.0399 0.0399734 0.0526981)
(1.04683 0.029806 0.0444595)
(0.791834 0.0311083 0.0490419)
(1.03188 -0.0834502 -0.0717986)
(0.801018 0.0221572 -0.00513297)
(1.0543 0.0125336 0.0442026)
(2.32662 -0.0172027 -0.0739425)
(1.11455 0.0350159 0.0302027)
(0.775833 0.0214464 -0.0431255)
(2.4465 -0.0424658 -0.054603)
(0.826423 0.0136722 0.0330519)
(0.862104 -0.0635686 -0.0507662)
(0.868774 -0.0594745 0.16816)
(1.10559 0.034292 0.0293601)
(1.14798 0.0818949 0.0339437)
(0.788202 0.0193703 0.0285731)
(0.800967 0.0514317 0.00104728)
(2.35903 -0.0261697 -0.00739562)
(1.02528 -0.00183026 0.0281178)
(2.46101 -0.0387916 -0.0341498)
(2.2878 0.00339312 0.0338881)
(0.830178 0.00163704 0.0157759)
(1.0666 -0.0339755 0.0277903)
(0.77845 -0.0651728 0.0360529)
(2.54493 -0.0038713 -0.0150034)
(1.06742 -0.00567424 0.0729425)
(0.839835 -0.0331887 0.0387069)
(1.12001 0.0339491 0.0785894)
(0.818937 -0.0309584 0.0408808)
(1.06062 0.0407521 0.0770365)
(1.07178 0.0244503 0.0475659)
(0.997204 -0.00899551 0.0329307)
(1.05137 0.0266327 0.0571107)
(1.12543 0.0307118 -0.0101862)
(1.09564 -0.00119555 0.0571546)
(0.77946 -0.00407253 0.0371876)
(0.827667 0.0143116 0.0387588)
(0.762754 0.0153751 0.031414)
(2.38935 -0.0392499 -0.0148393)
(1.12984 -0.0456049 0.0871846)
(2.31273 -0.0455977 -0.0131027)
(0.764836 0.00906715 0.034789)
(2.52138 -0.0474023 -0.0330695)
(2.22708 -0.0195989 -0.0468303)
(2.16247 -0.0115882 -0.059581)
(0.948016 -0.0247153 -0.0781386)
(1.00729 -0.00731977 0.0347232)
(0.990358 0.00318377 0.0270254)
(1.02698 0.0123579 0.0108045)
(1.16255 0.0363026 0.0800443)
(1.11586 0.034032 0.0842019)
(2.49236 -0.052075 -0.00193025)
(1.00601 -0.00701588 0.0349237)
(2.22446 0.032859 -0.0210304)
(0.818027 0.0163018 0.0360011)
(1.0135 0.00984011 -0.010056)
(2.51364 0.004893 -0.021121)
(2.34433 -0.0144533 -0.0851924)
(0.786054 0.0225028 0.0352501)
(0.80073 0.0221705 0.0393931)
(1.13363 -0.0506788 0.0916602)
(1.07099 0.0222188 0.0456463)
(2.31009 -0.0142294 -0.0689198)
(0.929493 -0.0219232 0.184745)
(0.959941 0.0410794 0.0751673)
(0.933083 0.0949725 0.0241445)
(1.09909 -0.00912149 0.0591186)
(0.747412 0.0417583 0.0250956)
(2.31599 -0.0150929 -0.0706179)
(1.06641 0.0528692 0.0944842)
(1.08857 -0.0105183 0.0358149)
(1.01445 -0.00573479 0.0328982)
(0.743567 0.037603 0.04925)
(1.03967 0.0131439 0.0104651)
(2.19224 -0.00370837 -0.0664485)
(2.44501 -0.0364433 -0.0228545)
(2.19932 -0.0195588 -0.0557175)
(2.2875 -0.0313175 0.00431192)
(0.765254 0.050403 0.0316957)
(0.783384 0.0220501 0.0354493)
(0.72876 -0.0401888 0.00066775)
(2.55674 -0.044687 -0.0279389)
(1.03442 0.0251975 -0.0470671)
(0.897204 0.0872358 0.0627554)
(1.12999 -0.0475662 0.0883214)
(2.39297 -0.0856899 -0.0317981)
(2.46417 -0.0389957 -0.0338556)
(1.12276 -0.0333974 0.0667494)
(1.1246 0.0885715 0.0245589)
(0.784481 0.00528219 0.0459812)
(0.78455 0.0499768 -0.00201131)
(1.03295 0.0242616 -0.0470588)
(1.00259 0.0400101 0.059882)
(2.55283 0.00363834 -0.0233256)
(1.10375 0.0275786 0.0927747)
(0.818238 0.0151356 0.0312135)
(1.95914 -0.124751 -0.037421)
(1.0999 0.0323363 0.0294013)
(0.967371 -0.0154364 0.09059)
(1.02183 -0.0859119 -0.0693986)
(0.976023 -0.00701569 0.0858168)
(0.777608 0.0228939 0.0351756)
(1.01847 0.044621 -0.0889552)
(1.08195 -0.00380817 0.0317394)
(1.05005 0.0077541 -0.0129443)
(0.827707 -0.0201637 0.0292263)
(0.777768 0.0402084 0.0282687)
(1.03895 0.0885798 0.0560609)
(1.02203 0.0161052 0.0462688)
(0.765951 0.0471657 0.02841)
(0.787058 -0.0690715 0.0361523)
(2.48909 -0.00700616 -0.00191953)
(1.03482 0.0351868 0.048924)
(2.2413 0.0349874 0.0366192)
(2.32512 -0.0168908 -0.0593568)
(1.14111 -0.0381718 0.0754362)
(0.785265 0.0273109 0.0486632)
(2.46276 0.0231122 0.00582953)
(0.742777 0.0407241 -0.000450879)
(1.0122 -0.00710112 0.0410176)
(1.06952 -0.0407945 0.0345169)
(2.30817 -0.0541444 -0.01871)
(0.796972 0.0311252 0.0531263)
(0.780836 0.0281248 -0.0495215)
(1.0584 0.00789402 -0.0150248)
(0.744038 0.0509399 0.121684)
(1.00008 -0.00879376 0.0373599)
(0.86476 -0.0159307 0.0546097)
(1.00706 0.0535683 -0.0662783)
(0.801655 0.0325707 0.093399)
(0.750256 0.0335104 0.0227385)
(1.07508 0.0769411 0.0518257)
(0.990368 0.17877 -0.0399147)
(0.810961 0.00068841 -0.0109537)
(1.08285 0.0381151 0.00489525)
(2.44221 -0.0328564 -0.0234712)
(0.94138 0.101521 -0.0334969)
(2.5541 -0.0375086 -0.0717108)
(2.31319 -0.0156028 -0.0440655)
(1.02365 0.007888 0.0231482)
(0.835054 0.0152367 0.0394022)
(0.642614 0.0407306 0.0895579)
(0.754028 -0.00169287 -0.0325299)
(1.03815 0.0380312 0.0508005)
(1.12437 0.03698 0.0325463)
(2.55379 -0.0415237 -0.0275425)
(0.740836 0.0275139 0.0470591)
(2.49423 -0.0517467 -0.00146488)
(2.42623 -0.0270583 0.00654104)
(2.36012 -0.0252896 -0.0479388)
(1.1459 -0.0505163 0.0848395)
(1.10123 0.0404548 0.0844223)
(1.15884 -0.0539283 0.0883847)
(1.12869 -0.0376638 0.0614098)
(0.787201 0.0229249 0.0339632)
(2.28768 -0.0276617 0.00428638)
(0.827475 0.0015302 0.0160038)
(2.53813 -0.0272883 -0.0383356)
(2.33079 -0.0486709 -0.0266329)
(0.967725 0.0347257 0.0272945)
(0.772349 0.0244171 0.0194294)
(2.36242 -0.016047 -0.0564793)
(0.78671 0.0275157 0.0484305)
(0.794834 0.00698372 -0.0205007)
(1.07351 0.00956162 0.00785962)
(2.42621 -0.0215771 -0.065872)
(2.31973 -0.02333 -0.0618792)
(1.96478 -0.127635 -0.0407537)
(2.28888 0.00967051 0.0276252)
(2.07857 0.00231722 -0.0632815)
(0.808423 0.0415601 0.0251785)
(1.10733 0.0303007 0.0884987)
(1.01431 0.0736421 0.0930396)
(1.06565 0.0290817 -0.0266614)
(2.51221 0.0109316 -0.0121922)
(2.17217 -0.0471021 -0.0382965)
(0.724944 0.0256548 0.0499452)
(2.54847 -0.0722772 -0.0306202)
(0.805094 0.0177189 0.0337344)
(1.03672 0.0750341 0.00477615)
(1.06764 0.0325044 -0.0317512)
(2.57522 -0.0335944 -0.0844971)
(1.09942 0.0546002 0.0766746)
(2.55611 0.0213033 -0.015714)
(1.10827 0.0316105 0.0827003)
(0.805465 0.00432429 0.0130466)
(0.967442 0.0338499 0.0267546)
(1.10431 0.00812528 0.0950376)
(0.772677 0.0204661 0.0488421)
(1.1353 -0.0373552 0.0754675)
(1.06412 0.0100242 0.00971057)
(0.787597 0.0292053 0.0471393)
(0.738971 0.0545755 0.121984)
(0.843588 0.0305887 0.0934249)
(1.04463 0.0881956 0.057403)
(1.02467 0.0103092 -0.000499489)
(1.07211 0.0426786 0.0120419)
(1.00293 -0.0102674 0.0327871)
(2.15369 -0.0145122 -0.0610923)
(2.46025 -0.0356329 -0.0810742)
(0.99731 -0.0128883 0.038338)
(2.36735 -0.0298788 -0.0356827)
(2.15779 -0.0251082 -0.0350388)
(2.27845 -0.0755641 -0.0082224)
(2.33545 -0.0975328 0.0202917)
(0.751339 0.0479555 0.0259766)
(0.766282 0.0473218 0.0282543)
(2.41842 -0.0951339 -0.0204087)
(2.55523 0.0204764 -0.0283353)
(0.830877 -0.0597611 0.0649299)
(1.14126 -0.0376251 0.0724175)
(1.07586 0.0699551 -0.0204402)
(1.12166 -0.0104285 0.0556297)
(0.782306 0.0226744 0.0473592)
(0.792909 0.0232966 0.0382253)
(2.07277 -0.00498554 -0.0509003)
(0.816304 -0.03371 0.0458479)
(1.0457 0.0181164 0.00835472)
(1.12663 -0.0463661 0.0930729)
(1.11746 0.106438 0.061968)
(0.994064 0.0949417 -0.0151844)
(1.13174 0.0926558 -0.0060465)
(1.038 0.037775 0.0387742)
(0.969923 0.103731 0.215578)
(1.07308 -0.0503326 0.0437707)
(2.43421 -0.0431025 -0.0189785)
(0.906078 0.0922388 0.060417)
(0.789131 0.024853 0.0470994)
(0.982167 0.0277347 0.0581054)
(1.02691 0.0362668 0.0514613)
(0.634432 0.0319972 0.109692)
(1.118 0.0229736 0.0927071)
(1.04682 0.058239 0.0150698)
(1.00289 0.218661 0.0348135)
(0.945967 0.103009 -0.0371463)
(0.872754 -0.0489209 0.163822)
(2.15344 -0.0094742 -0.0320733)
(0.81721 0.00687243 0.0621812)
(1.14054 0.0859737 0.056915)
(1.08904 0.017951 0.0857585)
(2.42775 -0.103258 0.0122004)
(1.01607 0.212743 0.0500958)
(1.01491 0.000511672 0.0312716)
(0.825239 -0.0079854 0.00344815)
(0.983692 0.178267 -0.0421083)
(2.50631 -0.101956 -0.0168657)
(0.785756 0.0254958 0.0495659)
(2.56857 0.0283747 -0.0919261)
(1.06827 0.0926976 0.113291)
(0.948874 0.0238298 0.087944)
(0.846567 -0.0742288 -0.0524796)
(1.14168 0.113581 0.0724836)
(0.807774 -0.000441426 0.017277)
(1.03761 0.0270907 -0.0482177)
(2.37355 0.00592751 -0.0380833)
(2.22085 0.0179209 -0.0631103)
(1.07309 0.0421761 0.0761235)
(2.32789 -0.00653002 -0.0828306)
(2.45114 -0.0241929 -0.0899181)
(2.10901 0.0134461 -0.0487693)
(1.08481 -0.0549561 0.030619)
(0.969787 0.0347992 0.0279282)
(2.1595 -0.000385121 -0.0630681)
(1.04215 0.0774037 0.00600794)
(0.836119 0.0418786 0.0212556)
(0.986904 0.0370173 0.0555662)
(0.792869 0.0206355 0.0323508)
(0.808606 0.0186376 0.0362971)
(1.0794 0.0449354 0.0595047)
(2.06448 -0.0326738 -0.0456668)
(0.972653 0.0298613 0.0751529)
(2.2174 -0.0303788 -0.0456502)
(1.12832 -0.038224 0.0749739)
(1.99063 -0.126452 -0.0433343)
(1.02786 0.0309233 0.0508708)
(2.33428 -0.0281447 -0.049618)
(1.01611 0.0509109 0.036686)
(1.07006 -0.0172299 0.0483834)
(0.779545 0.0289082 0.0473999)
(1.0803 -0.0210299 0.0205308)
(1.00491 0.09968 0.167239)
(0.74683 0.0501857 0.120079)
(0.786433 0.0337264 0.0306403)
(1.09808 -0.00976543 0.0853936)
(1.21215 0.0391759 0.00905114)
(2.22951 -0.0273404 -0.0542152)
(1.14437 -0.0344457 0.068756)
(0.771686 -0.0112714 0.0814741)
(0.789982 0.021185 0.0335184)
(0.775829 0.0243239 0.050807)
(1.10699 -0.00759691 0.055892)
(0.789654 0.0238817 0.0466724)
(0.805425 0.0345628 0.0878248)
(0.777652 0.00424068 0.0308198)
(0.790701 0.0357626 0.0306875)
(1.14276 -0.0379326 0.0648762)
(2.14008 0.00691915 -0.044973)
(1.97128 -0.122251 -0.0370827)
(1.1421 -0.0385451 0.0710651)
(1.08316 -0.0437598 0.0489523)
(0.789209 -0.000809153 0.0449156)
(2.56513 -0.0290509 -0.0521201)
(0.779477 0.0220988 0.0357119)
(2.1544 -0.0154361 -0.059028)
(1.00001 0.00795065 0.0355145)
(1.0151 0.0180318 -0.0154782)
(2.5241 -0.0247801 -0.0884185)
(1.14485 -0.0467195 0.0891893)
(0.770097 0.0298117 0.0366939)
(1.07996 -0.0461771 0.0380776)
(1.96532 -0.138634 -0.026319)
(0.747909 0.024372 -0.0349744)
(2.15308 -0.016555 -0.0417337)
(1.19145 0.0552164 0.0828098)
(0.827352 0.0149394 0.0422702)
(2.42039 -0.0184877 -0.0692487)
(1.08234 0.0565979 0.0772654)
(1.17045 0.097049 0.113875)
(1.11226 0.039127 0.0331134)
(1.03284 -0.0651022 0.0467043)
(1.16028 0.0925985 0.117909)
(0.779849 0.0250048 0.0500906)
(2.40575 -0.0276167 -0.0621179)
(0.832288 0.000581846 0.0142208)
(2.53309 -0.0165591 -0.0810804)
(2.06107 0.0281422 -0.0202295)
(1.0828 0.0599297 0.0765763)
(0.784064 -0.0698327 0.0364952)
(1.01634 0.093533 0.175941)
(0.808915 -0.015553 0.0158389)
(0.749642 0.0528018 0.122302)
(0.786325 0.00598834 0.0495196)
(0.776776 0.00132169 0.0445168)
(2.26868 -0.0307054 -0.0406484)
(2.40856 -0.0202801 -0.0702955)
(1.0914 -0.00325614 0.0637864)
(2.4329 -0.0426918 -0.0192791)
(0.802271 0.0540136 0.00357343)
(0.980548 0.0207933 0.0594239)
(2.2776 -0.0351269 0.00787137)
(0.772962 0.0198299 0.0312469)
(1.10898 0.0311296 0.0310472)
(2.18595 0.000756105 -0.0192212)
(0.823374 0.012736 0.0342096)
(1.07788 0.0380502 0.00524555)
(1.07345 0.0386056 0.0763605)
(1.05075 0.0184665 0.0540415)
(2.38726 0.000502846 0.0123177)
(1.08984 0.0495423 -0.0676954)
(1.11116 0.0369828 0.0814358)
(0.991762 0.00152583 0.0308147)
(0.628374 0.0333483 0.105776)
(0.822732 0.0112625 0.0384288)
(0.79598 0.021716 0.0384582)
(1.03303 -0.0216491 0.0189082)
(0.834515 -0.0321535 0.040034)
(2.4464 0.0432651 0.0427222)
(1.06636 0.0207805 0.0458597)
(2.57101 -0.0434628 -0.0160221)
(0.75387 0.00848215 0.0314766)
(1.13816 0.0402462 -0.0575247)
(2.06774 -0.00490621 -0.0548584)
(1.0572 0.0377691 0.0154798)
(1.0273 0.0718407 0.00136905)
(1.12963 -0.0353337 0.0707653)
(2.29196 0.00142811 -0.0647598)
(1.11364 0.035543 0.0760928)
(1.03179 0.0099186 -0.00156896)
(1.09056 0.043754 0.0670564)
(2.14252 -0.00800777 -0.068854)
(1.07294 0.0536469 0.0937162)
(2.27064 -0.0306229 -0.0400712)
(0.844872 0.016795 0.0352749)
(2.56982 -0.035374 -0.0780447)
(1.21577 0.0957389 0.119657)
(1.0442 -0.0299566 0.0204403)
(1.04008 -0.0288964 0.0180993)
(1.11589 0.0230206 0.0932317)
(2.06169 -0.0312247 -0.0448146)
(1.02936 0.0719822 0.00140207)
(0.811321 0.00731891 0.0558357)
(2.04469 0.0432102 -0.0477723)
(0.813879 0.00598284 0.042196)
(1.08527 0.0226633 0.0860757)
(1.12463 0.105628 0.0710275)
(1.06759 0.0544203 0.0928361)
(1.09522 0.0435883 -0.0214637)
(0.946026 0.0220515 0.0541933)
(1.06483 0.0623978 0.0513288)
(1.09765 -0.00744815 0.0585751)
(1.02131 0.0200724 -0.00387838)
(2.63207 -0.0603811 -0.0978944)
(0.786875 0.046441 -0.0771943)
(1.03324 0.0443242 0.0245492)
(1.99047 -0.111892 -0.019604)
(0.976341 0.0918224 0.0169935)
(2.33059 -0.0212133 -0.0280337)
(2.51237 0.0226535 -0.0130324)
(1.07499 0.0538782 0.0935702)
(1.16236 0.0447137 0.0866331)
(0.825393 0.0502448 -0.0669712)
(0.994494 0.042654 0.0369385)
(0.765173 0.0226265 -0.0420281)
(1.1968 0.0925518 0.106367)
(1.14773 0.116662 0.0516168)
(2.26942 -0.0305037 -0.040011)
(0.865346 -0.0140795 0.0528602)
(2.27611 -0.0361251 0.00839723)
(2.43177 -0.0437478 -0.0185502)
(1.07863 0.0244442 0.032511)
(0.908238 0.0918625 0.060211)
(0.811031 0.00729987 0.0555553)
(1.10323 -0.0458767 0.0353773)
(2.13028 -0.00218877 -0.00949597)
(0.865259 -0.0535992 -0.0534509)
(0.863641 0.0580193 -0.0557215)
(1.16152 0.0446518 0.0863224)
(1.00758 0.0951756 0.175579)
(0.950517 0.0210175 0.0531147)
(2.16984 -0.042941 -0.0374378)
(1.06918 -0.035099 0.0415075)
(0.77872 0.01444 0.0229282)
(1.13695 -0.0335262 0.0694978)
(2.22811 -0.0189788 -0.0470767)
(0.990615 0.102978 0.165268)
(0.950544 0.189616 -0.0405451)
(0.730796 0.0533757 0.118278)
(0.935548 0.108967 0.0102401)
(0.786152 0.0158874 0.0222757)
(1.08373 0.0610115 0.0758221)
(1.01341 0.067219 0.000244404)
(0.976192 0.0512986 0.119445)
(0.782267 0.0201456 0.0260854)
(1.11493 -0.0457088 0.0834932)
(2.55027 -0.0474619 -0.0473374)
(1.09208 0.0107098 -0.0107784)
(0.772229 -0.0109245 -0.0076996)
(2.15996 -0.0198868 -0.0518094)
(1.13661 0.0396696 -0.0568644)
(0.729528 -0.03407 0.00272902)
(0.824985 -0.0802561 -0.0294879)
(0.798998 0.0203469 0.0426491)
(0.834566 0.0420172 0.021222)
(0.935134 0.0952116 0.0237839)
(1.13491 0.0919874 0.0417146)
(2.39096 -0.0380359 -0.0151383)
(2.46239 0.0278645 -0.00042978)
(2.49899 -0.0737679 -0.000989734)
(1.10856 0.0244885 0.0912828)
(2.23101 -0.026468 -0.0547146)
(1.05287 0.0117673 0.0151735)
(1.07027 0.0302633 -0.021073)
(2.0679 -0.0306347 -0.049377)
(0.77973 0.00103324 0.0478755)
(2.42266 0.0183135 0.0121394)
(2.4467 -0.0415402 -0.0337402)
(0.776368 0.0260449 0.0159535)
(2.56961 -0.0553241 -0.0472403)
(2.30085 -0.018881 -0.0537708)
(1.01522 0.0893498 0.0569759)
(0.947688 0.103047 -0.0371777)
(0.815951 0.0163119 0.036843)
(1.12938 0.0908665 0.0361977)
(2.54938 -0.052857 -0.0245702)
(1.10904 0.0939201 -0.0479308)
(2.57073 -0.0429947 -0.0162134)
(2.15249 -0.0159525 -0.0599591)
(0.789148 0.0137707 0.0284984)
(1.00995 0.0245248 0.0419549)
(0.86187 -0.0598698 0.164243)
(1.10131 0.0360488 0.0313969)
(1.06156 0.050223 0.0901934)
(0.893873 0.0329826 0.033323)
(2.16272 -0.0123688 -0.036116)
(1.11733 -0.0440536 0.0688316)
(1.08094 0.043216 0.0671761)
(1.09006 0.0237737 -0.00450227)
(0.8072 0.0337795 0.0210029)
(1.04101 0.06466 0.0732164)
(2.50447 0.00970424 -0.011812)
(1.10726 -0.0199556 0.0246749)
(2.16472 -0.0251992 -0.0563389)
(0.825116 0.0156519 -0.024522)
(2.33418 -0.020076 -0.0303734)
(0.980832 0.040615 0.0379107)
(0.815501 0.0386446 0.013529)
(1.18909 0.0963983 0.102465)
(2.18565 -0.00993926 -0.058877)
(2.46387 0.018068 0.0174391)
(2.26755 -0.0404621 -0.0312095)
(1.09438 -0.0654963 0.0472203)
(1.04429 -0.0475267 0.0363482)
(2.17553 -0.0368514 -0.05439)
(2.2758 -0.0425438 -0.0318479)
(2.57852 -0.04685 -0.0676428)
(1.39865 0.0770419 0.15985)
(0.834864 0.0343953 0.0783879)
(0.774019 0.0313144 0.0101426)
(1.03995 0.0617137 0.0187768)
(1.02645 0.017323 0.0485407)
(1.04946 0.0346997 -0.0387543)
(0.765366 0.0358818 0.00608185)
(2.57573 -0.0322905 -0.0527533)
(1.1971 0.0953567 0.102499)
(0.874606 0.000305889 0.0407915)
(0.745376 -0.0613132 0.0119113)
(1.12568 0.0213666 0.0760188)
(0.841797 -0.0567068 -0.0617227)
(0.999857 0.0557709 0.0726775)
(2.12788 0.0346849 0.000936565)
(2.56673 -0.0433464 -0.0162701)
(1.74026 -0.0947601 0.132367)
(1.09588 0.0318788 0.0772287)
(1.10887 0.0243223 0.0913675)
(1.06377 0.0216379 0.0548004)
(1.01696 0.0733074 0.0927444)
(1.08217 -0.0641341 0.0406844)
(2.04949 0.0302864 -0.0522767)
(2.57791 0.00618818 -0.0057891)
(1.09274 0.0495125 -0.0673789)
(2.06314 -0.0341042 -0.0372208)
(0.826241 -0.0282502 0.0346584)
(2.55251 -0.0226957 -0.0553295)
(1.1066 0.0405097 -0.0189229)
(2.17127 -0.00706523 -0.0582245)
(2.16653 -0.0123127 -0.032323)
(2.4045 -0.0146927 -0.0384666)
(0.96711 0.00250366 0.0668669)
(0.762797 -0.0176914 0.00192154)
(2.11343 -0.00750609 -0.0592407)
(2.15172 -0.00389604 0.0598907)
(1.10557 0.0637616 0.0496655)
(2.36414 -0.0161034 -0.0488734)
(1.04529 0.0879216 0.0572279)
(1.01289 -0.00606539 0.0331555)
(2.32528 0.0150915 -0.0750432)
(1.11622 0.0230718 0.0929743)
(0.766521 -0.0649931 0.0389379)
(1.04582 0.00935193 0.017185)
(1.0523 0.00827557 -0.025273)
(0.794938 0.000489355 0.0448257)
(2.57301 -0.0162402 -0.0627677)
(0.770916 0.0468575 0.0292289)
(0.745112 0.0523798 0.0312838)
(0.98319 -0.007697 0.0867373)
(2.22998 -0.0191893 -0.0474299)
(0.975239 -0.00697444 0.0860805)
(0.786956 0.000253246 0.0487358)
(1.14647 0.0921448 0.0415092)
(2.48692 -0.0448491 -0.00144444)
(0.759263 0.0879009 0.023448)
(2.28961 0.0107852 -0.0340732)
(2.34907 0.00245148 -0.0315735)
(2.13753 -0.00247739 -0.0583391)
(0.740815 0.0503272 0.0256173)
(2.07051 -0.0306777 -0.0466089)
(0.755261 0.0491367 0.0299351)
(0.971516 0.0300852 0.0711203)
(0.811045 0.0383635 0.017399)
(0.758575 -0.0324422 -0.00531515)
(0.807019 0.0347471 0.0870889)
(1.13461 0.0420424 0.0375366)
(1.03826 0.0890155 0.0559506)
(0.806848 0.0339392 0.0163893)
(0.765421 0.0475048 0.0283109)
(1.0321 -0.0641789 0.0432209)
(1.10575 -0.0168255 0.0407105)
(1.10786 0.0602544 -0.0355607)
(2.27654 -0.0298516 -0.041762)
(2.35281 -0.0260917 -0.00525766)
(0.765674 0.0875167 0.0228376)
(2.14544 -0.00479519 -0.0595536)
(2.62195 -0.0603644 -0.0844869)
(0.78842 0.032341 0.00850216)
(2.21165 -0.0348116 -0.0311415)
(2.0577 -0.034891 -0.0364639)
(2.31895 -0.01203 -0.0668173)