/*--------------------------------*- C++ -*----------------------------------*\
  =========                 |
  \\      /  F ield         | OpenFOAM: The Open Source CFD Toolbox
   \\    /   O peration     | Website:  https://openfoam.org
    \\  /    A nd           | Version:  13
     \\/     M anipulation  |
\*---------------------------------------------------------------------------*/
FoamFile
{
    format      ascii;
    class       surfaceScalarField;
    location    "30";
    object      phi;
}
// * * * * * * * * * * * * * * * * * * * * * * * * * * * * * * * * * * * * * //

dimensions      [0 3 -1 0 0 0 0];

internalField   nonuniform List<scalar> 
10260
(
2.76618e-14
6.95191e-14
6.95191e-14
2.1797e-14
2.93245e-15
2.93245e-15
2.53307e-14
-1.76685e-15
-1.76686e-15
2.31643e-14
1.08321e-15
1.08322e-15
2.44904e-14
-6.63043e-16
-6.63057e-16
2.36784e-14
4.06383e-16
4.06384e-16
2.41763e-14
-2.49799e-16
-2.49768e-16
2.38734e-14
1.52232e-16
1.52195e-16
2.40539e-14
-9.06153e-17
-9.06149e-17
2.39491e-14
5.25637e-17
5.25716e-17
2.40074e-14
-2.92556e-17
-2.92756e-17
2.39762e-14
1.56585e-17
1.56809e-17
2.39919e-14
-7.98652e-18
-7.99622e-18
2.3984e-14
3.90273e-18
3.92511e-18
2.39879e-14
-1.94783e-18
-1.95886e-18
2.39861e-14
9.16092e-19
9.19108e-19
2.39872e-14
-5.26452e-19
-5.26993e-19
2.39864e-14
3.73175e-19
3.73623e-19
2.39871e-14
-3.12248e-19
-3.11766e-19
2.39865e-14
2.71997e-19
2.71354e-19
2.3987e-14
-2.1629e-19
-2.15439e-19
2.39868e-14
8.61214e-20
8.49548e-20
2.39869e-14
-2.26199e-20
-2.20712e-20
2.3987e-14
-5.49411e-20
-5.58203e-20
2.39868e-14
1.09723e-19
1.10118e-19
2.39871e-14
-1.5041e-19
-1.50867e-19
2.39868e-14
1.60959e-19
1.61288e-19
2.39874e-14
-3.22934e-19
-3.23832e-19
2.39869e-14
2.88844e-19
2.89531e-19
2.39878e-14
-4.24965e-19
-4.29094e-19
2.39869e-14
4.18964e-19
4.22693e-19
2.39882e-14
-5.70852e-19
-5.75072e-19
2.39866e-14
7.45277e-19
7.50307e-19
2.39879e-14
-5.89311e-19
-5.95326e-19
2.39863e-14
7.2638e-19
7.32144e-19
2.39879e-14
-6.64158e-19
-6.69771e-19
8.1605e-19
8.1365e-19
5.27662e-14
7.41984e-14
1.09255e-13
4.6948e-14
3.76063e-15
4.99036e-15
5.04384e-14
-2.25618e-15
-3.00112e-15
4.82976e-14
1.38508e-15
1.83895e-15
4.9608e-14
-8.48403e-16
-1.12489e-15
4.88061e-14
5.22233e-16
6.88301e-16
4.92977e-14
-3.24635e-16
-4.21695e-16
4.89989e-14
1.99935e-16
2.55532e-16
4.91763e-14
-1.19402e-16
-1.50749e-16
4.90738e-14
6.95667e-17
8.63613e-17
4.91301e-14
-3.89276e-17
-4.72092e-17
4.91004e-14
2.1041e-17
2.46582e-17
4.9115e-14
-1.09348e-17
-1.22105e-17
4.91076e-14
4.98607e-18
5.84387e-18
4.91112e-14
-2.54249e-18
-2.919e-18
4.91097e-14
1.22782e-18
1.36233e-18
4.91107e-14
-6.42807e-19
-8.50164e-19
4.91099e-14
4.24081e-19
6.67719e-19
4.91106e-14
-3.44509e-19
-5.85106e-19
4.91101e-14
3.14363e-19
5.37963e-19
4.91106e-14
-2.3932e-19
-4.41364e-19
4.91104e-14
5.33691e-20
2.00169e-19
4.91105e-14
4.55571e-20
-9.69987e-20
4.91106e-14
-1.20054e-19
-5.54529e-20
4.91104e-14
1.86051e-19
1.62411e-19
4.91107e-14
-2.28106e-19
-2.45649e-19
4.91104e-14
2.18828e-19
2.65378e-19
4.91112e-14
-3.9804e-19
-6.01959e-19
4.91106e-14
3.3671e-19
5.22532e-19
4.91117e-14
-4.26248e-19
-8.39939e-19
4.91108e-14
4.06375e-19
8.23005e-19
4.91123e-14
-3.57193e-19
-1.20061e-18
4.91103e-14
5.40604e-19
1.60952e-18
4.91117e-14
-3.15987e-19
-1.29914e-18
4.91099e-14
5.04208e-19
1.61572e-18
4.91118e-14
-1.19276e-19
-1.54387e-18
3.41989e-19
1.84784e-18
6.69395e-14
5.69502e-14
1.17009e-13
6.20204e-14
3.07098e-15
5.60917e-15
6.49719e-14
-1.83588e-15
-3.37194e-15
6.31628e-14
1.12825e-15
2.06601e-15
6.42698e-14
-6.91478e-16
-1.26381e-15
6.35935e-14
4.2677e-16
7.74069e-16
6.40064e-14
-2.67283e-16
-4.75262e-16
6.37568e-14
1.6593e-16
2.8811e-16
6.3904e-14
-9.92632e-17
-1.69592e-16
6.38198e-14
5.79576e-17
9.67744e-17
6.38654e-14
-3.24451e-17
-5.26447e-17
6.38419e-14
1.75507e-17
2.73461e-17
6.3853e-14
-9.14972e-18
-1.34769e-17
6.38472e-14
3.9778e-18
6.26132e-18
6.385e-14
-2.0665e-18
-3.12662e-18
6.3849e-14
9.49599e-19
1.50061e-18
6.38498e-14
-4.81811e-19
-9.47958e-19
6.38491e-14
3.1208e-19
7.47976e-19
6.38497e-14
-2.53847e-19
-6.6753e-19
6.38492e-14
2.4759e-19
6.14259e-19
6.38497e-14
-1.88228e-19
-5.03597e-19
6.38495e-14
4.23752e-21
2.27723e-19
6.38496e-14
7.21724e-20
-9.07779e-20
6.38497e-14
-1.33668e-19
-6.58922e-20
6.38495e-14
1.81871e-19
1.9548e-19
6.38498e-14
-2.06479e-19
-2.9538e-19
6.38496e-14
1.58765e-19
3.31982e-19
6.38503e-14
-3.5753e-19
-6.6267e-19
6.38498e-14
2.33438e-19
6.1e-19
6.38508e-14
-3.37496e-19
-8.79338e-19
6.385e-14
2.28351e-19
9.45563e-19
6.38515e-14
-1.36057e-19
-1.23848e-18
6.38495e-14
3.27992e-19
1.6641e-18
6.38509e-14
1.59611e-20
-1.42299e-18
6.38491e-14
2.04187e-19
1.76388e-18
6.38511e-14
2.85164e-19
-1.57738e-18
-4.6577e-20
1.88494e-18
7.51195e-14
3.03244e-14
1.18206e-13
7.07278e-14
1.67797e-15
5.78513e-15
7.33706e-14
-1.00069e-15
-3.47817e-15
7.17524e-14
6.15169e-16
2.13144e-15
7.27423e-14
-3.76969e-16
-1.30437e-15
7.21384e-14
2.33075e-16
7.99889e-16
7.25054e-14
-1.46579e-16
-4.92699e-16
7.22847e-14
9.14474e-17
2.99624e-16
7.24143e-14
-5.45316e-17
-1.76623e-16
7.23407e-14
3.16889e-17
1.00946e-16
7.23802e-14
-1.77324e-17
-5.49034e-17
7.23601e-14
9.49167e-18
2.85592e-17
7.23694e-14
-4.99281e-18
-1.40517e-17
7.23645e-14
2.01441e-18
6.43385e-18
7.23668e-14
-1.10223e-18
-3.2096e-18
7.2366e-14
4.64322e-19
1.51649e-18
7.23667e-14
-2.51751e-19
-9.45435e-19
7.23661e-14
1.63469e-19
7.47025e-19
7.23667e-14
-1.32428e-19
-6.71295e-19
7.23662e-14
1.46115e-19
6.21589e-19
7.23667e-14
-1.12012e-19
-5.0928e-19
7.23665e-14
1.19537e-22
1.97239e-19
7.23666e-14
3.80835e-20
-5.56229e-20
7.23667e-14
-7.12558e-20
-1.07672e-19
7.23665e-14
9.94562e-20
2.36953e-19
7.23668e-14
-1.08165e-19
-3.34545e-19
7.23666e-14
6.92593e-20
3.42333e-19
7.23672e-14
-2.04474e-19
-7.15207e-19
7.23668e-14
1.04314e-19
6.08029e-19
7.23677e-14
-1.76808e-19
-8.9959e-19
7.23669e-14
7.93508e-20
9.08404e-19
7.23684e-14
-3.78711e-21
-1.17177e-18
7.23664e-14
1.59133e-19
1.62225e-18
7.23679e-14
1.19999e-19
-1.27955e-18
7.2366e-14
4.67019e-20
1.66701e-18
7.23682e-14
3.15951e-19
-1.36152e-18
-1.97315e-19
1.72879e-18
7.89055e-14
3.14964e-19
1.18119e-13
7.47602e-14
-3.02999e-20
5.82365e-15
7.72608e-14
1.61737e-19
-3.50154e-15
7.57306e-14
-1.34305e-19
2.14555e-15
7.66665e-14
1.86376e-19
-1.31296e-15
7.60961e-14
6.92862e-19
8.05051e-16
7.64416e-14
-7.4553e-19
-4.9643e-16
7.62345e-14
6.13593e-19
3.02406e-16
7.6356e-14
7.62088e-20
-1.78354e-16
7.62872e-14
-5.38152e-19
1.02123e-16
7.6324e-14
2.68177e-19
-5.55311e-17
7.63054e-14
-4.0367e-19
2.89472e-17
7.63139e-14
9.79097e-20
-1.42412e-17
7.63093e-14
-3.24386e-19
6.5181e-18
7.63115e-14
8.06421e-20
-3.2709e-18
7.63108e-14
-7.01099e-20
1.51108e-18
7.63115e-14
-1.48198e-20
-9.25869e-19
7.63109e-14
4.72342e-21
7.41085e-19
7.63115e-14
-4.94602e-21
-6.61922e-19
7.6311e-14
2.37083e-20
6.25048e-19
7.63114e-14
-1.18572e-20
-5.18304e-19
7.63112e-14
2.30319e-20
1.78112e-19
7.63114e-14
-5.64863e-21
-5.78327e-20
7.63114e-14
2.21164e-20
-1.21202e-19
7.63113e-14
-5.89523e-21
2.40705e-19
7.63115e-14
7.01414e-21
-3.32085e-19
7.63113e-14
1.97428e-20
2.97264e-19
7.63119e-14
3.7138e-20
-7.6721e-19
7.63115e-14
2.78797e-21
5.71461e-19
7.63124e-14
8.91402e-20
-9.77302e-19
7.63116e-14
-1.39893e-20
8.56101e-19
7.63131e-14
1.43959e-19
-1.20166e-18
7.63111e-14
-1.26707e-19
1.73028e-18
7.63127e-14
7.70947e-20
-1.18865e-18
7.63108e-14
-8.34548e-20
1.66282e-18
7.6313e-14
1.87535e-19
-1.29217e-18
-3.46849e-19
1.78293e-18
7.89055e-14
-3.0324e-14
1.18119e-13
7.47602e-14
-1.67802e-15
5.82367e-15
7.72608e-14
1.001e-15
-3.50155e-15
7.57306e-14
-6.1542e-16
2.14556e-15
7.66665e-14
3.77319e-16
-1.31296e-15
7.60961e-14
-2.31751e-16
8.05052e-16
7.64416e-14
1.45022e-16
-4.96365e-16
7.62345e-14
-9.01199e-17
3.02312e-16
7.6356e-14
5.45839e-17
-1.78329e-16
7.62872e-14
-3.26316e-17
1.02119e-16
7.6324e-14
1.82017e-17
-5.55363e-17
7.63054e-14
-1.0212e-17
2.89357e-17
7.63139e-14
5.14824e-18
-1.42391e-17
7.63093e-14
-2.6244e-18
6.52127e-18
7.63115e-14
1.24666e-18
-3.26688e-18
7.63108e-14
-5.85765e-19
1.51259e-18
7.63115e-14
2.26171e-19
-9.27703e-19
7.63109e-14
-1.55042e-19
7.40674e-19
7.63115e-14
1.26681e-19
-6.633e-19
7.6311e-14
-1.01437e-19
6.23777e-19
7.63114e-14
8.96338e-20
-5.15931e-19
7.63112e-14
4.11403e-20
1.80044e-19
7.63114e-14
-4.92928e-20
-5.51168e-20
7.63114e-14
1.12567e-19
-1.21804e-19
7.63113e-14
-1.11732e-19
2.42762e-19
7.63115e-14
1.22608e-19
-3.34005e-19
7.63113e-14
-3.90267e-20
3.06939e-19
7.63119e-14
2.7109e-19
-7.60403e-19
7.63115e-14
-1.05854e-19
5.80064e-19
7.63124e-14
3.38533e-19
-9.67918e-19
7.63116e-14
-1.17381e-19
8.69615e-19
7.63131e-14
2.83454e-19
-1.20191e-18
7.63111e-14
-3.96815e-19
1.71499e-18
7.63127e-14
4.60613e-20
-1.20661e-18
7.63108e-14
-2.12062e-19
1.6641e-18
7.6313e-14
6.51397e-20
-1.30661e-18
-4.59599e-19
1.77701e-18
7.51195e-14
-5.69502e-14
1.18207e-13
7.07278e-14
-3.07099e-15
5.78515e-15
7.33706e-14
1.83611e-15
-3.47819e-15
7.17524e-14
-1.12844e-15
2.13146e-15
7.27423e-14
6.91769e-16
-1.30438e-15
7.21384e-14
-4.25543e-16
7.9979e-16
7.25053e-14
2.65524e-16
-4.92439e-16
7.22847e-14
-1.64373e-16
2.99357e-16
7.24144e-14
9.90401e-17
-1.76531e-16
7.23407e-14
-5.85463e-17
1.00947e-16
7.23802e-14
3.2735e-17
-5.49187e-17
7.23601e-14
-1.80473e-17
2.85441e-17
7.23694e-14
9.20394e-18
-1.40498e-17
7.23645e-14
-4.49088e-18
6.45082e-18
7.23668e-14
2.18129e-18
-3.20582e-18
7.2366e-14
-1.01652e-18
1.5165e-18
7.23667e-14
4.62289e-19
-9.45117e-19
7.23661e-14
-3.06418e-19
7.46109e-19
7.23667e-14
2.56315e-19
-6.72603e-19
7.23662e-14
-2.12338e-19
6.19591e-19
7.23667e-14
1.72506e-19
-5.05941e-19
7.23665e-14
2.69169e-20
1.99013e-19
7.23666e-14
-7.86084e-20
-5.31165e-20
7.23667e-14
1.67533e-19
-1.10404e-19
7.23665e-14
-1.93831e-19
2.41086e-19
7.23667e-14
2.19634e-19
-3.37495e-19
7.23666e-14
-1.4061e-19
3.54719e-19
7.23672e-14
4.19051e-19
-7.14434e-19
7.23667e-14
-2.45575e-19
6.22527e-19
7.23677e-14
4.84537e-19
-9.08251e-19
7.23669e-14
-2.84786e-19
9.36959e-19
7.23684e-14
4.13243e-19
-1.2007e-18
7.23664e-14
-5.71224e-19
1.63751e-18
7.23679e-14
1.70727e-19
-1.32176e-18
7.2366e-14
-3.79968e-19
1.69053e-18
7.23682e-14
1.09311e-19
-1.4102e-18
-5.31614e-19
1.76072e-18
6.69395e-14
-7.41982e-14
1.17008e-13
6.20204e-14
-3.76055e-15
5.60917e-15
6.49719e-14
2.2563e-15
-3.37196e-15
6.31628e-14
-1.38521e-15
2.06605e-15
6.42698e-14
8.48641e-16
-1.26387e-15
6.35936e-14
-5.21099e-16
7.73834e-16
6.40063e-14
3.22586e-16
-4.74787e-16
6.37568e-14
-1.98164e-16
2.87738e-16
6.3904e-14
1.18839e-16
-1.69464e-16
6.38198e-14
-6.97058e-17
9.68137e-17
6.38654e-14
3.90072e-17
-5.2698e-17
6.38418e-14
-2.12784e-17
2.73788e-17
6.3853e-14
1.08796e-17
-1.34949e-17
6.38472e-14
-5.36959e-18
6.32546e-18
6.385e-14
2.63314e-18
-3.15934e-18
6.3849e-14
-1.22466e-18
1.50385e-18
6.38498e-14
6.30395e-19
-9.4594e-19
6.38491e-14
-4.28232e-19
7.53095e-19
6.38497e-14
3.54757e-19
-6.66777e-19
6.38492e-14
-2.97401e-19
6.16008e-19
6.38497e-14
2.38804e-19
-5.05281e-19
6.38495e-14
-3.37403e-20
2.26664e-19
6.38496e-14
-3.43158e-20
-9.90089e-20
6.38497e-14
1.39324e-19
-6.64256e-20
6.38495e-14
-1.8868e-19
1.92723e-19
6.38498e-14
2.2981e-19
-2.90175e-19
6.38496e-14
-1.86156e-19
3.16505e-19
6.38503e-14
4.64806e-19
-6.7774e-19
6.38498e-14
-3.31603e-19
5.97834e-19
6.38508e-14
5.7122e-19
-9.16811e-19
6.385e-14
-4.37546e-19
9.36201e-19
6.38515e-14
6.25278e-19
-1.28773e-18
6.38495e-14
-8.32612e-19
1.74243e-18
6.38509e-14
4.77453e-19
-1.43772e-18
6.38491e-14
-6.89668e-19
1.80303e-18
6.38511e-14
4.99851e-19
-1.63441e-18
-8.46345e-19
1.97662e-18
5.27662e-14
-6.95191e-14
1.09255e-13
4.6948e-14
-2.93232e-15
4.99039e-15
5.04384e-14
1.76687e-15
-3.00115e-15
4.82976e-14
-1.08323e-15
1.83897e-15
4.9608e-14
6.63123e-16
-1.12487e-15
4.88062e-14
-4.05759e-16
6.88459e-16
4.92976e-14
2.48114e-16
-4.21882e-16
4.89989e-14
-1.50746e-16
2.55632e-16
4.91763e-14
8.99903e-17
-1.5092e-16
4.90738e-14
-5.22969e-17
8.65099e-17
4.91301e-14
2.91883e-17
-4.73529e-17
4.91004e-14
-1.56477e-17
2.47376e-17
4.9115e-14
7.87749e-18
-1.22956e-17
4.91076e-14
-4.08824e-18
5.83808e-18
4.91112e-14
1.98982e-18
-2.90456e-18
4.91097e-14
-8.68852e-19
1.4022e-18
4.91107e-14
5.30607e-19
-8.56671e-19
4.91099e-14
-3.83305e-19
6.68648e-19
4.91106e-14
3.2889e-19
-5.81579e-19
4.91101e-14
-2.69734e-19
5.34008e-19
4.91105e-14
2.20287e-19
-4.3085e-19
4.91104e-14
-8.55913e-20
2.03721e-19
4.91105e-14
3.52371e-20
-8.72605e-20
4.91106e-14
5.62587e-20
-5.56847e-20
4.91104e-14
-1.06555e-19
1.65218e-19
4.91107e-14
1.46302e-19
-2.48065e-19
4.91104e-14
-1.51452e-19
2.87493e-19
4.91112e-14
3.45603e-19
-5.71756e-19
4.91106e-14
-2.9333e-19
5.37517e-19
4.91117e-14
4.78081e-19
-7.96104e-19
4.91108e-14
-4.48583e-19
8.39957e-19
4.91123e-14
7.19279e-19
-1.15054e-18
4.91103e-14
-9.05897e-19
1.5174e-18
4.91117e-14
7.08218e-19
-1.30435e-18
4.91099e-14
-8.38922e-19
1.58096e-18
4.91118e-14
9.183e-19
-1.5006e-18
-1.03477e-18
1.78595e-18
2.76618e-14
6.95191e-14
2.1797e-14
2.93255e-15
2.53307e-14
-1.76686e-15
2.31643e-14
1.08322e-15
2.44904e-14
-6.63024e-16
2.36785e-14
4.06577e-16
2.41763e-14
-2.50646e-16
2.38734e-14
1.52963e-16
2.40539e-14
-9.0971e-17
2.3949e-14
5.28283e-17
2.40074e-14
-2.93255e-17
2.39762e-14
1.57202e-17
2.39919e-14
-8.0529e-18
2.3984e-14
3.84857e-18
2.39879e-14
-1.93368e-18
2.39861e-14
9.51209e-19
2.39872e-14
-5.1909e-19
2.39864e-14
3.65426e-19
2.39871e-14
-3.02606e-19
2.39865e-14
2.68589e-19
2.3987e-14
-2.12453e-19
2.39868e-14
8.2444e-20
2.39869e-14
-1.47674e-20
2.3987e-14
-5.85625e-20
2.39868e-14
1.12771e-19
2.39871e-14
-1.54172e-19
2.39868e-14
1.61696e-19
2.39874e-14
-3.18184e-19
2.39869e-14
2.84224e-19
2.39878e-14
-4.15224e-19
2.39869e-14
4.06151e-19
2.39882e-14
-5.1604e-19
2.39865e-14
6.8039e-19
2.39879e-14
-5.39418e-19
2.39863e-14
6.84981e-19
2.39879e-14
-5.5675e-19
7.64524e-19
5.27662e-14
1.09255e-13
7.41984e-14
4.6948e-14
4.99036e-15
3.76062e-15
5.04384e-14
-3.00111e-15
-2.2562e-15
4.82976e-14
1.83894e-15
1.38511e-15
4.9608e-14
-1.12487e-15
-8.48429e-16
4.88061e-14
6.88338e-16
5.22211e-16
4.92977e-14
-4.21727e-16
-3.24597e-16
4.89989e-14
2.55604e-16
1.99854e-16
4.91763e-14
-1.50748e-16
-1.19412e-16
4.90738e-14
8.63177e-17
6.9619e-17
4.91301e-14
-4.71796e-17
-3.89779e-17
4.91004e-14
2.46247e-17
2.10962e-17
4.9115e-14
-1.21981e-17
-1.09587e-17
4.91076e-14
5.80293e-18
5.03627e-18
4.91112e-14
-2.89631e-18
-2.56592e-18
4.91097e-14
1.35593e-18
1.23794e-18
4.91107e-14
-8.50784e-19
-6.42757e-19
4.91099e-14
6.68358e-19
4.23878e-19
4.91106e-14
-5.86773e-19
-3.42223e-19
4.91101e-14
5.39609e-19
3.122e-19
4.91106e-14
-4.42872e-19
-2.3693e-19
4.91104e-14
2.02437e-19
5.00917e-20
4.91105e-14
-9.80799e-20
4.73243e-20
4.91106e-14
-5.31771e-20
-1.23049e-19
4.91104e-14
1.61179e-19
1.8765e-19
4.91107e-14
-2.44345e-19
-2.2984e-19
4.91104e-14
2.65349e-19
2.19412e-19
4.91112e-14
-5.99411e-19
-4.00919e-19
4.91106e-14
5.22366e-19
3.37636e-19
4.91117e-14
-8.293e-19
-4.39389e-19
4.91108e-14
8.15958e-19
4.1627e-19
4.91123e-14
-1.19067e-18
-3.68484e-19
4.91103e-14
1.59952e-18
5.5255e-19
4.91117e-14
-1.28526e-18
-3.33039e-19
4.91099e-14
1.60057e-18
5.21991e-19
4.91118e-14
-1.53287e-18
-1.31441e-19
1.84709e-18
3.44624e-19
1.147e-13
1.35255e-13
1.35255e-13
1.10466e-13
7.10774e-15
7.10776e-15
1.1297e-13
-4.2533e-15
-4.25333e-15
1.1143e-13
2.60928e-15
2.60931e-15
1.12377e-13
-1.59819e-15
-1.59822e-15
1.11792e-13
9.8349e-16
9.83407e-16
1.12158e-13
-6.11378e-16
-6.11356e-16
1.11927e-13
3.77147e-16
3.7699e-16
1.12072e-13
-2.25729e-16
-2.25753e-16
1.11982e-13
1.32071e-16
1.32215e-16
1.12035e-13
-7.43616e-17
-7.44475e-17
1.12004e-13
4.04844e-17
4.05772e-17
1.12021e-13
-2.12815e-17
-2.13222e-17
1.12012e-13
9.79729e-18
9.89457e-18
1.12016e-13
-5.05682e-18
-5.1054e-18
1.12015e-13
2.43053e-18
2.45431e-18
1.12016e-13
-1.23164e-18
-1.23121e-18
1.12015e-13
7.88118e-19
7.86872e-19
1.12015e-13
-6.05608e-19
-6.00767e-19
1.12015e-13
5.74305e-19
5.69983e-19
1.12015e-13
-4.32294e-19
-4.28072e-19
1.12016e-13
8.03287e-20
7.48103e-20
1.12015e-13
7.50632e-20
7.84386e-20
1.12016e-13
-2.25087e-19
-2.30982e-19
1.12016e-13
3.34821e-19
3.38097e-19
1.12016e-13
-3.99982e-19
-4.03499e-19
1.12016e-13
3.4974e-19
3.50947e-19
1.12016e-13
-7.58498e-19
-7.63139e-19
1.12016e-13
5.726e-19
5.73425e-19
1.12017e-13
-8.45334e-19
-8.70906e-19
1.12017e-13
6.65527e-19
6.84591e-19
1.12017e-13
-6.59299e-19
-6.80627e-19
1.12017e-13
1.07461e-18
1.09107e-18
1.12016e-13
-4.50431e-19
-4.86531e-19
1.12017e-13
8.59305e-19
8.95962e-19
1.12016e-13
-1.23846e-19
-1.45052e-19
6.39769e-19
6.49746e-19
1.53222e-13
1.11634e-13
1.54108e-13
1.51429e-13
6.14764e-15
8.36359e-15
1.52467e-13
-3.66376e-15
-4.99965e-15
1.51827e-13
2.24874e-15
3.06612e-15
1.52222e-13
-1.37764e-15
-1.87827e-15
1.51979e-13
8.49558e-16
1.15679e-15
1.52131e-13
-5.3105e-16
-7.20852e-16
1.52033e-13
3.29406e-16
4.45087e-16
1.52096e-13
-1.9725e-16
-2.66299e-16
1.52056e-13
1.15422e-16
1.55718e-16
1.5208e-13
-6.50648e-17
-8.7424e-17
1.52066e-13
3.54675e-17
4.75396e-17
1.52073e-13
-1.87592e-17
-2.49041e-17
1.52068e-13
8.27117e-18
1.13457e-17
1.52071e-13
-4.35246e-18
-5.85933e-18
1.5207e-13
2.04037e-18
2.82567e-18
1.5207e-13
-1.0214e-18
-1.41578e-18
1.5207e-13
6.27975e-19
9.08253e-19
1.5207e-13
-4.81083e-19
-7.04791e-19
1.52071e-13
4.82886e-19
6.73652e-19
1.52071e-13
-3.60941e-19
-5.07772e-19
1.52071e-13
2.79909e-20
6.89547e-20
1.52071e-13
1.1232e-19
1.2417e-19
1.52071e-13
-2.24494e-19
-2.95649e-19
1.52071e-13
3.16798e-19
4.25559e-19
1.52071e-13
-3.62731e-19
-5.04214e-19
1.52071e-13
2.87125e-19
4.31634e-19
1.52071e-13
-6.53145e-19
-9.13066e-19
1.52071e-13
4.47138e-19
6.77055e-19
1.52072e-13
-6.4148e-19
-9.87534e-19
1.52072e-13
4.44944e-19
7.87386e-19
1.52073e-13
-2.59659e-19
-6.69645e-19
1.52072e-13
6.3623e-19
1.1469e-18
1.52071e-13
2.89095e-21
-4.452e-19
1.52072e-13
4.06565e-19
9.5139e-19
1.52072e-13
5.03433e-19
9.00864e-20
-7.14236e-20
5.13357e-19
1.76185e-13
6.15961e-14
1.58759e-13
1.75868e-13
3.46215e-15
8.78862e-15
1.76036e-13
-2.05821e-15
-5.25247e-15
1.75932e-13
1.26366e-15
3.22065e-15
1.75998e-13
-7.74165e-16
-1.9733e-15
1.75958e-13
4.78801e-16
1.21612e-15
1.75981e-13
-3.00556e-16
-7.59564e-16
1.75965e-13
1.87085e-16
4.69948e-16
1.75978e-13
-1.11582e-16
-2.81314e-16
1.75968e-13
6.47092e-17
1.64625e-16
1.75975e-13
-3.6442e-17
-9.23195e-17
1.7597e-13
1.96255e-17
5.02277e-17
1.75973e-13
-1.0456e-17
-2.62697e-17
1.7597e-13
4.22085e-18
1.1846e-17
1.75971e-13
-2.32339e-18
-6.12128e-18
1.75971e-13
1.04201e-18
2.93217e-18
1.75971e-13
-5.6983e-19
-1.44423e-18
1.75972e-13
3.38314e-19
9.26167e-19
1.75972e-13
-2.65191e-19
-7.21352e-19
1.75972e-13
2.93222e-19
6.98815e-19
1.75972e-13
-2.15418e-19
-5.29447e-19
1.75972e-13
2.1851e-20
3.38907e-20
1.75972e-13
7.54565e-20
1.63557e-19
1.75972e-13
-1.16995e-19
-3.48351e-19
1.75972e-13
1.83467e-19
4.7775e-19
1.75972e-13
-2.08077e-19
-5.54473e-19
1.75972e-13
1.75569e-19
4.38301e-19
1.75972e-13
-3.36053e-19
-1.00263e-18
1.75972e-13
2.38977e-19
6.82968e-19
1.75973e-13
-2.44436e-19
-1.05554e-18
1.75973e-13
1.94753e-19
7.61118e-19
1.75973e-13
8.91257e-20
-6.11429e-19
1.75973e-13
1.46789e-19
1.14546e-18
1.75972e-13
1.93209e-19
-2.76969e-19
1.75973e-13
5.70038e-20
8.72953e-19
1.75973e-13
6.40681e-19
3.67294e-19
-5.48879e-19
3.60534e-19
1.86944e-13
3.16818e-19
1.5947e-13
1.87325e-13
-1.0487e-19
8.90592e-15
1.87088e-13
3.36014e-19
-5.3227e-15
1.87234e-13
-3.23325e-19
3.26331e-15
1.87146e-13
4.77703e-19
-1.99947e-15
1.87202e-13
1.69839e-18
1.23237e-15
1.87164e-13
-2.10573e-18
-7.70509e-16
1.87186e-13
1.79048e-18
4.77226e-16
1.87176e-13
-7.96006e-20
-2.85774e-16
1.8718e-13
-1.15358e-18
1.6739e-16
1.87179e-13
5.90839e-19
-9.38062e-17
1.87179e-13
-7.84183e-19
5.10799e-17
1.87179e-13
1.95698e-19
-2.66896e-17
1.87177e-13
-7.35572e-19
1.20076e-17
1.87178e-13
1.76401e-19
-6.21126e-18
1.87178e-13
-1.48925e-19
2.95657e-18
1.87178e-13
-2.96377e-20
-1.43686e-18
1.87178e-13
-1.55564e-21
9.23597e-19
1.87178e-13
2.26823e-21
-7.18587e-19
1.87178e-13
5.19209e-20
7.04218e-19
1.87178e-13
-2.80587e-20
-5.37947e-19
1.87179e-13
3.94392e-20
1.30722e-20
1.87179e-13
-8.10882e-21
1.75041e-19
1.87179e-13
4.8259e-20
-3.70254e-19
1.87179e-13
-1.60561e-20
4.9321e-19
1.87179e-13
1.52788e-20
-5.65938e-19
1.87179e-13
2.70775e-20
4.155e-19
1.87179e-13
8.00935e-20
-1.04901e-18
1.87179e-13
-1.17349e-20
6.63698e-19
1.87179e-13
2.06711e-19
-1.10786e-18
1.8718e-13
-6.44075e-20
7.25825e-19
1.8718e-13
3.64233e-19
-6.04298e-19
1.87179e-13
-3.06648e-19
1.1854e-18
1.87179e-13
2.26611e-19
-1.82529e-19
1.87179e-13
-2.10312e-19
8.45156e-19
1.8718e-13
4.81759e-19
4.80747e-19
-8.15072e-19
3.50601e-19
1.86944e-13
-6.15954e-14
1.5947e-13
1.87325e-13
-3.4623e-15
8.90594e-15
1.87088e-13
2.0588e-15
-5.32272e-15
1.87234e-13
-1.26423e-15
3.26332e-15
1.87146e-13
7.7505e-16
-1.99947e-15
1.87202e-13
-4.75463e-16
1.23226e-15
1.87164e-13
2.96257e-16
-7.70362e-16
1.87186e-13
-1.83414e-16
4.77076e-16
1.87176e-13
1.11244e-16
-2.85776e-16
1.8718e-13
-6.67529e-17
1.67478e-16
1.87179e-13
3.74723e-17
-9.38536e-17
1.87179e-13
-2.10429e-17
5.11225e-17
1.87179e-13
1.07636e-17
-2.67043e-17
1.87177e-13
-5.61693e-18
1.20454e-17
1.87178e-13
2.65902e-18
-6.21765e-18
1.87178e-13
-1.29414e-18
2.96789e-18
1.87178e-13
5.13488e-19
-1.43554e-18
1.87178e-13
-3.43433e-19
9.21543e-19
1.87178e-13
2.74649e-19
-7.1782e-19
1.87178e-13
-1.97819e-19
7.00228e-19
1.87178e-13
1.67753e-19
-5.34155e-19
1.87179e-13
5.17015e-20
1.21593e-20
1.87179e-13
-8.4315e-20
1.77888e-19
1.87179e-13
2.05794e-19
-3.73122e-19
1.87179e-13
-2.1093e-19
4.95113e-19
1.87179e-13
2.34024e-19
-5.67552e-19
1.87179e-13
-1.15613e-19
4.19863e-19
1.87179e-13
4.96353e-19
-1.04605e-18
1.87179e-13
-2.54873e-19
6.68398e-19
1.87179e-13
6.48176e-19
-1.1089e-18
1.8718e-13
-3.12622e-19
7.3533e-19
1.8718e-13
6.2755e-19
-6.18344e-19
1.87179e-13
-7.70936e-19
1.18459e-18
1.87179e-13
2.48493e-19
-2.03021e-19
1.87179e-13
-4.81076e-19
8.54804e-19
1.8718e-13
3.14131e-19
4.49611e-19
-1.02614e-18
3.88835e-19
1.76185e-13
-1.11633e-13
1.58759e-13
1.75867e-13
-6.14766e-15
8.78867e-15
1.76036e-13
3.66416e-15
-5.25255e-15
1.75932e-13
-2.24915e-15
3.22071e-15
1.75998e-13
1.37833e-15
-1.97333e-15
1.75958e-13
-8.46515e-16
1.21579e-15
1.75981e-13
5.26697e-16
-7.59101e-16
1.75965e-13
-3.25627e-16
4.69504e-16
1.75978e-13
1.965e-16
-2.81298e-16
1.75968e-13
-1.16758e-16
1.64862e-16
1.75975e-13
6.56963e-17
-9.24468e-17
1.7597e-13
-3.64695e-17
5.03503e-17
1.75973e-13
1.88511e-17
-2.63079e-17
1.7597e-13
-9.43006e-18
1.19601e-17
1.75971e-13
4.6225e-18
-6.14622e-18
1.75971e-13
-2.1761e-18
2.96053e-18
1.75971e-13
9.76937e-19
-1.43894e-18
1.75971e-13
-6.38468e-19
9.21352e-19
1.75972e-13
5.03943e-19
-7.1873e-19
1.75972e-13
-4.1033e-19
6.88818e-19
1.75972e-13
3.34068e-19
-5.20839e-19
1.75972e-13
2.85107e-20
2.9908e-20
1.75972e-13
-1.04781e-19
1.68599e-19
1.75972e-13
2.90834e-19
-3.56369e-19
1.75972e-13
-3.32104e-19
4.81886e-19
1.75972e-13
3.77125e-19
-5.5748e-19
1.75972e-13
-2.20186e-19
4.43088e-19
1.75972e-13
7.99397e-19
-1.00214e-18
1.75972e-13
-4.46435e-19
6.90437e-19
1.75973e-13
9.90924e-19
-1.07295e-18
1.75973e-13
-5.33098e-19
7.81548e-19
1.75973e-13
9.10153e-19
-6.62783e-19
1.75973e-13
-1.23866e-18
1.16988e-18
1.75972e-13
3.98201e-19
-3.30691e-19
1.75973e-13
-8.15024e-19
9.09561e-19
1.75973e-13
3.96784e-19
2.7419e-19
-1.31041e-18
4.87341e-19
1.53222e-13
-1.35254e-13
1.54108e-13
1.51429e-13
-7.10758e-15
8.36365e-15
1.52467e-13
4.25344e-15
-4.99975e-15
1.51827e-13
-2.60942e-15
3.06621e-15
1.52222e-13
1.59856e-15
-1.87834e-15
1.51979e-13
-9.80905e-16
1.15629e-15
1.52131e-13
6.06889e-16
-7.20127e-16
1.52033e-13
-3.73127e-16
4.44417e-16
1.52096e-13
2.24322e-16
-2.66251e-16
1.52056e-13
-1.32282e-16
1.56034e-16
1.5208e-13
7.43674e-17
-8.76019e-17
1.52066e-13
-4.08284e-17
4.77293e-17
1.52073e-13
2.1031e-17
-2.49582e-17
1.52068e-13
-1.06048e-17
1.15144e-17
1.52071e-13
5.2266e-18
-5.89578e-18
1.5207e-13
-2.38361e-18
2.86379e-18
1.5207e-13
1.2056e-18
-1.4079e-18
1.5207e-13
-8.02746e-19
9.03839e-19
1.5207e-13
6.51953e-19
-7.00665e-19
1.52071e-13
-5.32694e-19
6.61154e-19
1.52071e-13
4.32625e-19
-4.98208e-19
1.52071e-13
-5.24364e-20
6.12978e-20
1.52071e-13
-4.99234e-20
1.27456e-19
1.52071e-13
2.59286e-19
-3.06153e-19
1.52071e-13
-3.36732e-19
4.28961e-19
1.52071e-13
4.02562e-19
-5.05968e-19
1.52071e-13
-2.94923e-19
4.2838e-19
1.52071e-13
8.73888e-19
-9.20334e-19
1.52071e-13
-5.72527e-19
6.79382e-19
1.52072e-13
1.10136e-18
-1.02609e-18
1.52072e-13
-7.49504e-19
8.06363e-19
1.52072e-13
1.21501e-18
-7.52179e-19
1.52072e-13
-1.61596e-18
1.20949e-18
1.52071e-13
8.29498e-19
-5.14489e-19
1.52072e-13
-1.24538e-18
1.01286e-18
1.52072e-13
9.64001e-19
-4.51934e-20
-1.68255e-18
7.20371e-19
1.147e-13
-1.09255e-13
1.35255e-13
1.10466e-13
-4.99016e-15
7.1078e-15
1.1297e-13
3.00105e-15
-4.25342e-15
1.1143e-13
-1.83888e-15
2.60938e-15
1.12377e-13
1.12492e-15
-1.59827e-15
1.11793e-13
-6.87004e-16
9.83007e-16
1.12158e-13
4.19049e-16
-6.10778e-16
1.11927e-13
-2.53207e-16
3.76413e-16
1.12072e-13
1.49562e-16
-2.25767e-16
1.11982e-13
-8.5816e-17
1.32539e-16
1.12035e-13
4.68158e-17
-7.46359e-17
1.12004e-13
-2.44874e-17
4.07914e-17
1.12021e-13
1.18624e-17
-2.13853e-17
1.12012e-13
-6.09485e-18
1.00666e-17
1.12016e-13
2.95407e-18
-5.13777e-18
1.12015e-13
-1.22035e-18
2.49999e-18
1.12015e-13
8.41734e-19
-1.2279e-18
1.12015e-13
-6.80992e-19
7.83943e-19
1.12015e-13
6.26872e-19
-5.97789e-19
1.12015e-13
-5.34576e-19
5.56732e-19
1.12015e-13
4.64125e-19
-4.17667e-19
1.12016e-13
-1.99061e-19
6.70439e-20
1.12015e-13
1.29537e-19
8.43399e-20
1.12016e-13
5.3356e-20
-2.40288e-19
1.12015e-13
-1.49473e-19
3.40911e-19
1.12016e-13
2.34706e-19
-4.0592e-19
1.12016e-13
-2.1947e-19
3.51674e-19
1.12016e-13
6.66191e-19
-7.61717e-19
1.12016e-13
-5.06431e-19
5.77426e-19
1.12017e-13
9.53556e-19
-8.89246e-19
1.12017e-13
-8.41922e-19
7.01746e-19
1.12017e-13
1.47579e-18
-7.39659e-19
1.12017e-13
-1.92496e-18
1.11719e-18
1.12016e-13
1.47147e-18
-5.48521e-19
1.12017e-13
-1.82548e-18
9.398e-19
1.12016e-13
1.98144e-18
-2.59473e-19
-2.29547e-18
8.27991e-19
5.27662e-14
7.41984e-14
4.6948e-14
3.76069e-15
5.04384e-14
-2.25624e-15
4.82976e-14
1.38515e-15
4.9608e-14
-8.48488e-16
4.88062e-14
5.2185e-16
4.92976e-14
-3.24216e-16
4.89989e-14
1.99529e-16
4.91763e-14
-1.19396e-16
4.90738e-14
6.98754e-17
4.91301e-14
-3.90587e-17
4.91004e-14
2.11482e-17
4.9115e-14
-1.09645e-17
4.91076e-14
5.10313e-18
4.91112e-14
-2.57427e-18
4.91097e-14
1.26002e-18
4.91107e-14
-6.33494e-19
4.91099e-14
4.17331e-19
4.91106e-14
-3.3941e-19
4.91101e-14
3.03987e-19
4.91105e-14
-2.3054e-19
4.91104e-14
4.7061e-20
4.91105e-14
5.00356e-20
4.91106e-14
-1.32375e-19
4.91104e-14
1.93208e-19
4.91107e-14
-2.32846e-19
4.91104e-14
2.19581e-19
4.91112e-14
-4.06734e-19
4.91106e-14
3.38976e-19
4.91117e-14
-4.6423e-19
4.91108e-14
4.22947e-19
4.91123e-14
-4.26283e-19
4.91103e-14
5.92089e-19
4.91117e-14
-3.71297e-19
4.91099e-14
5.51274e-19
4.91118e-14
-2.22949e-19
5.07346e-19
6.69395e-14
1.17009e-13
5.69502e-14
6.20204e-14
5.60916e-15
3.07098e-15
6.49719e-14
-3.37192e-15
-1.83592e-15
6.31628e-14
2.06599e-15
1.12828e-15
6.42698e-14
-1.26379e-15
-6.91515e-16
6.35935e-14
7.74111e-16
4.2674e-16
6.40064e-14
-4.75275e-16
-2.67292e-16
6.37568e-14
2.88186e-16
1.6585e-16
6.3904e-14
-1.69582e-16
-9.93079e-17
6.38198e-14
9.67087e-17
5.80701e-17
6.38654e-14
-5.26087e-17
-3.25283e-17
6.38419e-14
2.73062e-17
1.76399e-17
6.3853e-14
-1.34626e-17
-9.19013e-18
6.38472e-14
6.2147e-18
4.04529e-18
6.385e-14
-3.10143e-18
-2.09472e-18
6.3849e-14
1.49119e-18
9.69431e-19
6.38498e-14
-9.48732e-19
-4.81156e-19
6.38491e-14
7.49284e-19
3.10705e-19
6.38497e-14
-6.69817e-19
-2.49335e-19
6.38492e-14
6.16574e-19
2.4361e-19
6.38497e-14
-5.05674e-19
-1.83943e-19
6.38495e-14
2.30397e-19
-1.09175e-21
6.38496e-14
-9.2596e-20
7.58891e-20
6.38497e-14
-6.29564e-20
-1.38927e-19
6.38495e-14
1.93827e-19
1.84891e-19
6.38498e-14
-2.93606e-19
-2.09743e-19
6.38496e-14
3.31617e-19
1.60167e-19
6.38503e-14
-6.60832e-19
-3.60933e-19
6.38498e-14
6.09956e-19
2.34677e-19
6.38508e-14
-8.69645e-19
-3.5538e-19
6.385e-14
9.3837e-19
2.42172e-19
6.38515e-14
-1.22928e-18
-1.4919e-19
6.38495e-14
1.65769e-18
3.38728e-19
6.38509e-14
-1.40735e-18
-7.65202e-21
6.38491e-14
1.74767e-18
2.28254e-19
6.38511e-14
-1.56638e-18
2.73163e-19
1.88359e-18
-3.76751e-20
1.53222e-13
1.54108e-13
1.11633e-13
1.51429e-13
8.36356e-15
6.14768e-15
1.52467e-13
-4.99961e-15
-3.66381e-15
1.51827e-13
3.06608e-15
2.2488e-15
1.52222e-13
-1.87823e-15
-1.3777e-15
1.51979e-13
1.15691e-15
8.49449e-16
1.52131e-13
-7.20867e-16
-5.31093e-16
1.52033e-13
4.45297e-16
3.2923e-16
1.52096e-13
-2.66253e-16
-1.97331e-16
1.52056e-13
1.555e-16
1.15686e-16
1.5208e-13
-8.73014e-17
-6.52188e-17
1.52066e-13
4.74087e-17
3.56292e-17
1.52073e-13
-2.48485e-17
-1.88369e-17
1.52068e-13
1.12124e-17
8.40834e-18
1.52071e-13
-5.79239e-18
-4.41326e-18
1.5207e-13
2.79142e-18
2.08539e-18
1.5207e-13
-1.41736e-18
-1.02055e-18
1.5207e-13
9.11253e-19
6.25693e-19
1.5207e-13
-7.12345e-19
-4.72112e-19
1.52071e-13
6.80288e-19
4.75601e-19
1.52071e-13
-5.14168e-19
-3.5344e-19
1.52071e-13
7.70901e-20
1.87197e-20
1.52071e-13
1.18843e-19
1.18604e-19
1.52071e-13
-2.86813e-19
-2.34443e-19
1.52071e-13
4.20635e-19
3.22432e-19
1.52071e-13
-4.98997e-19
-3.68737e-19
1.52071e-13
4.30483e-19
2.89336e-19
1.52071e-13
-9.07108e-19
-6.59856e-19
1.52071e-13
6.77019e-19
4.48203e-19
1.52072e-13
-9.54813e-19
-6.80578e-19
1.52072e-13
7.64482e-19
4.72926e-19
1.52073e-13
-6.41956e-19
-2.88199e-19
1.52072e-13
1.12686e-18
6.5574e-19
1.52071e-13
-3.97836e-19
-4.84888e-20
1.52072e-13
9.02229e-19
4.58452e-19
1.52072e-13
1.18895e-19
4.80066e-19
4.97086e-19
-4.33323e-20
2.09644e-13
1.32636e-13
1.32636e-13
2.11435e-13
7.46886e-15
7.46892e-15
2.10325e-13
-4.44481e-15
-4.44488e-15
2.11004e-13
2.7266e-15
2.72668e-15
2.10589e-13
-1.67076e-15
-1.67084e-15
2.10846e-13
1.0314e-15
1.03124e-15
2.10684e-13
-6.46371e-16
-6.46438e-16
2.10783e-13
4.01655e-16
4.01412e-16
2.10726e-13
-2.40349e-16
-2.40469e-16
2.10758e-13
1.4044e-16
1.40816e-16
2.1074e-13
-7.89575e-17
-7.9167e-17
2.1075e-13
4.29315e-17
4.315e-17
2.10744e-13
-2.26349e-17
-2.2735e-17
2.10745e-13
9.77048e-18
9.9558e-18
2.10745e-13
-5.14568e-18
-5.22897e-18
2.10746e-13
2.40109e-18
2.46197e-18
2.10745e-13
-1.20158e-18
-1.19898e-18
2.10746e-13
7.46103e-19
7.4095e-19
2.10746e-13
-5.82118e-19
-5.69007e-19
2.10746e-13