/*--------------------------------*- C++ -*----------------------------------*\
  =========                 |
  \\      /  F ield         | OpenFOAM: The Open Source CFD Toolbox
   \\    /   O peration     | Website:  https://openfoam.org
    \\  /    A nd           | Version:  13
     \\/     M anipulation  |
\*---------------------------------------------------------------------------*/
FoamFile
{
    format      ascii;
    class       volVectorField;
    location    "30";
    object      U;
}
// * * * * * * * * * * * * * * * * * * * * * * * * * * * * * * * * * * * * * //

dimensions      [0 1 -1 0 0 0 0];

internalField   nonuniform List<vector> 
3700
(
(0.000194721 7.40011e-06 7.40011e-06)
(0.0002687 3.51416e-07 3.51415e-07)
(0.000222365 -2.13415e-07 -2.13416e-07)
(0.000250594 1.30625e-07 1.30625e-07)
(0.000233292 -7.99306e-08 -7.99318e-08)
(0.000243901 4.89401e-08 4.8941e-08)
(0.0002374 -3.00134e-08 -3.001e-08)
(0.000241393 1.82783e-08 1.82754e-08)
(0.000238944 -1.0913e-08 -1.09125e-08)
(0.000240427 6.36794e-09 6.36749e-09)
(0.000239543 -3.58551e-09 -3.58693e-09)
(0.000240052 1.94583e-09 1.94742e-09)
(0.000239769 -1.01548e-09 -1.01626e-09)
(0.000239916 5.04002e-10 5.05716e-10)
(0.000239841 -2.53995e-10 -2.54845e-10)
(0.000239878 1.25132e-10 1.25323e-10)
(0.000239863 -6.75475e-11 -6.7644e-11)
(0.00023987 4.57205e-11 4.58029e-11)
(0.000239867 -3.55376e-11 -3.55418e-11)
(0.000239869 3.09498e-11 3.09272e-11)
(0.000239867 -2.36587e-11 -2.36091e-11)
(0.00023987 1.15203e-11 1.14551e-11)
(0.000239868 -4.11127e-12 -4.08429e-12)
(0.00023987 -4.39795e-12 -4.43399e-12)
(0.000239868 1.05272e-11 1.05359e-11)
(0.00023987 -1.52198e-11 -1.52337e-11)
(0.000239867 1.85406e-11 1.85821e-11)
(0.000239873 -3.40832e-11 -3.41218e-11)
(0.000239869 3.45246e-11 3.46097e-11)
(0.000239876 -4.96457e-11 -4.98653e-11)
(0.00023987 5.10433e-11 5.1326e-11)
(0.00023988 -6.78185e-11 -6.80944e-11)
(0.000239871 8.57383e-11 8.6101e-11)
(0.000239875 -7.34811e-11 -7.38857e-11)
(0.000239868 8.58688e-11 8.61967e-11)
(0.000239872 -8.19544e-11 -8.24092e-11)
(0.000239869 9.90415e-11 9.8673e-11)
(0.000397942 1.44294e-05 1.1719e-05)
(0.000549726 6.60563e-07 6.31424e-07)
(0.000455334 -3.96534e-07 -3.82675e-07)
(0.000513036 2.43302e-07 2.3387e-07)
(0.000477648 -1.48952e-07 -1.42681e-07)
(0.000499362 9.14483e-08 8.66548e-08)
(0.000486054 -5.64945e-08 -5.25648e-08)
(0.000494202 3.45811e-08 3.16919e-08)
(0.000489239 -2.05894e-08 -1.86441e-08)
(0.00049222 1.19517e-08 1.07862e-08)
(0.00049046 -6.65286e-09 -5.99445e-09)
(0.000491465 3.57018e-09 3.23205e-09)
(0.000490911 -1.83204e-09 -1.68945e-09)
(0.000491197 8.64987e-10 8.61263e-10)
(0.000491051 -4.36819e-10 -4.58736e-10)
(0.000491124 2.07724e-10 2.26686e-10)
(0.000491094 -1.15255e-10 -1.24662e-10)
(0.000491107 8.00718e-11 9.46721e-11)
(0.000491101 -6.65673e-11 -6.94233e-11)
(0.000491105 5.96301e-11 7.0025e-11)
(0.000491102 -4.71145e-11 -5.98968e-11)
(0.000491106 1.55234e-11 3.63464e-11)
(0.000491103 -4.01887e-13 -3.83461e-11)
(0.000491107 -1.54781e-11 1.44e-11)
(0.000491102 2.74876e-11 -6.01982e-12)
(0.000491109 -3.60011e-11 -3.16414e-12)
(0.000491101 3.58795e-11 -1.58417e-13)
(0.000491114 -7.27209e-11 -7.47005e-11)
(0.000491102 6.20083e-11 4.94606e-11)
(0.00049112 -8.86559e-11 -1.45067e-10)
(0.000491103 8.46961e-11 1.0154e-10)
(0.000491125 -1.01945e-10 -2.01545e-10)
(0.000491105 1.40744e-10 2.87164e-10)
(0.000491117 -1.00352e-10 -1.93789e-10)
(0.000491102 1.34993e-10 2.60377e-10)
(0.000491113 -9.55621e-11 -2.60734e-10)
(0.000491105 1.3518e-10 3.47876e-10)
(0.000516783 1.3041e-05 1.17022e-05)
(0.00071443 6.78818e-07 6.90402e-07)
(0.000592045 -4.06387e-07 -4.18602e-07)
(0.000666988 2.49623e-07 2.55888e-07)
(0.000621005 -1.52962e-07 -1.561e-07)
(0.000649238 9.4308e-08 9.4894e-08)
(0.000631927 -5.88591e-08 -5.75706e-08)
(0.000642503 3.63902e-08 3.46495e-08)
(0.000636095 -2.17546e-08 -2.03607e-08)
(0.000639918 1.26842e-08 1.17371e-08)
(0.000637682 -7.0954e-09 -6.52457e-09)
(0.000638948 3.83421e-09 3.50527e-09)
(0.000638257 -1.99239e-09 -1.84432e-09)
(0.00063861 8.86375e-10 9.23485e-10)
(0.000638431 -4.53808e-10 -4.90451e-10)
(0.00063852 2.15441e-10 2.57269e-10)
(0.000638483 -1.11283e-10 -1.43085e-10)
(0.000638499 7.25927e-11 1.05146e-10)
(0.000638492 -5.96269e-11 -7.84487e-11)
(0.000638496 5.53396e-11 7.63617e-11)
(0.000638493 -4.18678e-11 -6.37081e-11)
(0.000638497 5.15133e-12 4.44372e-11)
(0.000638494 1.3415e-11 -3.97525e-11)
(0.000638499 -2.6329e-11 1.89771e-11)
(0.000638492 3.79584e-11 -7.27826e-12)
(0.000638502 -4.47374e-11 -4.13476e-12)
(0.00063849 3.9854e-11 1.12069e-11)
(0.000638508 -7.41899e-11 -6.60875e-11)
(0.000638491 5.78935e-11 6.23788e-11)
(0.000638515 -7.21961e-11 -1.30923e-10)
(0.00063849 6.34999e-11 1.20751e-10)
(0.000638522 -4.44688e-11 -1.96227e-10)
(0.000638493 7.81298e-11 2.67426e-10)
(0.000638512 -2.79247e-11 -2.2091e-10)
(0.000638491 6.5742e-11 2.72671e-10)
(0.000638507 2.18244e-11 -2.75847e-10)
(0.000638497 2.11085e-11 3.43737e-10)
(0.000585307 8.42707e-06 1.13552e-05)
(0.000809547 4.64167e-07 6.97245e-07)
(0.000671059 -2.77056e-07 -4.22988e-07)
(0.000755943 1.70298e-07 2.58706e-07)
(0.000703844 -1.04384e-07 -1.57909e-07)
(0.000735848 6.449e-08 9.61457e-08)
(0.000716216 -4.05129e-08 -5.84467e-08)
(0.000728192 2.52385e-08 3.52107e-08)
(0.000720964 -1.5095e-08 -2.07088e-08)
(0.000725255 8.81256e-09 1.19308e-08)
(0.000722763 -4.93317e-09 -6.63097e-09)
(0.000724164 2.66434e-09 3.5555e-09)
(0.000723406 -1.39236e-09 -1.86701e-09)
(0.00072379 5.88947e-10 9.27329e-10)
(0.000723596 -3.11395e-10 -4.8967e-10)
(0.000723692 1.37389e-10 2.59606e-10)
(0.000723652 -6.98769e-11 -1.4538e-10)
(0.00072367 4.52448e-11 1.058e-10)
(0.000723661 -3.66423e-11 -7.95192e-11)
(0.000723666 3.77641e-11 7.60911e-11)
(0.000723663 -2.89364e-11 -6.25872e-11)
(0.000723667 -1.49059e-12 4.30166e-11)
(0.000723664 1.20081e-11 -3.55755e-11)
(0.00072367 -2.17163e-11 1.60746e-11)
(0.000723661 2.8645e-11 -3.29373e-12)
(0.000723673 -3.15654e-11 -8.58146e-12)
(0.000723658 2.08911e-11 1.6968e-11)
(0.000723679 -5.71897e-11 -6.44339e-11)
(0.000723658 3.11778e-11 6.38394e-11)
(0.000723687 -5.22472e-11 -1.20017e-10)
(0.000723656 2.62313e-11 1.17206e-10)
(0.000723694 -1.12878e-11 -1.8112e-10)
(0.000723659 4.72284e-11 2.45887e-10)
(0.000723685 2.19688e-11 -2.10745e-10)
(0.000723658 1.89969e-11 2.57666e-10)
(0.000723678 6.88425e-11 -2.56846e-10)
(0.000723668 -2.84958e-11 3.1814e-10)
(0.000617005 2.89059e-06 1.11792e-05)
(0.000853587 1.62014e-07 6.97354e-07)
(0.000707661 -9.65065e-08 -4.23144e-07)
(0.000797142 5.93237e-08 2.58824e-07)
(0.000742212 -3.63443e-08 -1.58005e-07)
(0.000775963 2.25474e-08 9.62273e-08)
(0.000755255 -1.42285e-08 -5.8561e-08)
(0.000767878 8.90887e-09 3.53231e-08)
(0.000760275 -5.27572e-09 -2.07833e-08)
(0.000764776 3.0259e-09 1.19875e-08)
(0.000762172 -1.6966e-09 -6.66033e-09)
(0.000763631 8.8589e-10 3.57666e-09)
(0.000762845 -4.76375e-10 -1.87409e-09)
(0.000763242 1.65824e-10 9.33234e-10)
(0.000763042 -1.00109e-10 -4.93786e-10)
(0.000763141 3.74478e-11 2.5822e-10)
(0.000763099 -2.47942e-11 -1.4336e-10)
(0.000763118 1.57436e-11 1.05422e-10)
(0.000763109 -1.27739e-11 -7.82922e-11)
(0.000763114 1.61696e-11 7.60737e-11)
(0.000763111 -1.19728e-11 -6.31171e-11)
(0.000763114 1.39833e-12 4.00885e-11)
(0.000763111 3.29877e-12 -3.53139e-11)
(0.000763117 -5.37748e-12 1.39934e-11)
(0.000763108 9.30448e-12 -2.18253e-12)
(0.000763121 -9.81108e-12 -9.241e-12)
(0.000763105 7.3058e-12 1.22274e-11)
(0.000763127 -1.77655e-11 -7.08535e-11)
(0.000763103 9.24829e-12 5.86385e-11)
(0.000763135 -1.08588e-11 -1.27757e-10)
(0.000763101 4.68329e-12 1.08217e-10)
(0.000763142 1.25431e-11 -1.83192e-10)
(0.000763104 6.09225e-12 2.57813e-10)
(0.000763133 2.20678e-11 -1.98076e-10)
(0.000763105 -4.30938e-12 2.5538e-10)
(0.000763127 5.08698e-11 -2.4746e-10)
(0.000763116 -5.11894e-11 3.23527e-10)
(0.000617004 -2.89049e-06 1.11793e-05)
(0.000853587 -1.62024e-07 6.97356e-07)
(0.00070766 9.65652e-08 -4.23151e-07)
(0.000797143 -5.93727e-08 2.5883e-07)
(0.000742211 3.6413e-08 -1.5801e-07)
(0.000775963 -2.22943e-08 9.62371e-08)
(0.000755255 1.39559e-08 -5.85566e-08)
(0.000767878 -8.68295e-09 3.53134e-08)
(0.000760276 5.30439e-09 -2.07868e-08)
(0.000764776 -3.22425e-09 1.19899e-08)
(0.000762172 1.79473e-09 -6.66674e-09)
(0.000763631 -1.03373e-09 3.58318e-09)
(0.000762845 5.11513e-10 -1.87721e-09)
(0.000763242 -2.84954e-10 9.36472e-10)
(0.000763042 1.29438e-10 -4.93898e-10)
(0.000763141 -6.31184e-11 2.59779e-10)
(0.000763099 1.94464e-11 -1.43838e-10)
(0.000763118 -1.39821e-11 1.05559e-10)
(0.000763109 1.10599e-11 -7.82603e-11)
(0.000763114 -7.40926e-12 7.57245e-11)
(0.000763111 7.59492e-12 -6.25849e-11)
(0.000763114 7.02401e-12 3.99365e-11)
(0.000763111 -5.45217e-12 -3.47751e-11)
(0.000763117 1.34934e-11 1.38268e-11)
(0.000763108 -1.1479e-11 -1.97511e-12)
(0.000763121 1.24222e-11 -9.52545e-12)
(0.000763105 -1.61955e-13 1.33019e-11)
(0.000763127 3.10486e-11 -6.98468e-11)
(0.000763103 -8.14067e-12 5.96561e-11)
(0.000763135 4.27073e-11 -1.26222e-10)
(0.000763101 -9.49529e-12 1.09662e-10)
(0.000763142 3.97363e-11 -1.82365e-10)
(0.000763104 -5.14365e-11 2.55065e-10)
(0.000763133 6.11343e-12 -1.99853e-10)
(0.000763105 -2.5833e-11 2.5503e-10)
(0.000763127 1.81577e-11 -2.48134e-10)
(0.000763116 -7.61581e-11 3.22121e-10)
(0.000585306 -8.42704e-06 1.13552e-05)
(0.000809548 -4.64178e-07 6.97245e-07)
(0.000671058 2.77109e-07 -4.23004e-07)
(0.000755945 -1.70341e-07 2.58721e-07)
(0.000703842 1.04443e-07 -1.57924e-07)
(0.000735849 -6.42546e-08 9.61637e-08)
(0.000716216 4.02129e-08 -5.84333e-08)
(0.000728191 -2.49741e-08 3.51889e-08)
(0.000720966 1.50843e-08 -2.07179e-08)
(0.000725253 -8.96041e-09 1.19401e-08)
(0.000722764 5.0056e-09 -6.64763e-09)
(0.000724164 -2.7795e-09 3.57477e-09)
(0.000723406 1.41259e-09 -1.87542e-09)
(0.00072379 -6.9392e-10 9.37315e-10)
(0.000723596 3.34835e-10 -4.91553e-10)
(0.000723692 -1.55839e-10 2.63511e-10)
(0.000723651 6.56506e-11 -1.46274e-10)
(0.00072367 -4.36146e-11 1.06403e-10)
(0.000723661 3.62823e-11 -7.92576e-11)
(0.000723666 -2.99617e-11 7.54885e-11)
(0.000723663 2.50152e-11 -6.17923e-11)
(0.000723667 8.26379e-12 4.22395e-11)
(0.000723664 -1.41965e-11 -3.49746e-11)
(0.00072367 2.89506e-11 1.5744e-11)
(0.000723661 -3.12089e-11 -3.23908e-12)
(0.000723673 3.44998e-11 -8.79979e-12)
(0.000723658 -1.74104e-11 1.73388e-11)
(0.000723679 6.84137e-11 -6.36831e-11)
(0.000723657 -3.34014e-11 6.43511e-11)
(0.000723687 7.98888e-11 -1.19079e-10)
(0.000723656 -3.63357e-11 1.17987e-10)
(0.000723694 6.24827e-11 -1.80888e-10)
(0.000723659 -8.91586e-11 2.44486e-10)
(0.000723685 1.20203e-11 -2.12567e-10)
(0.000723658 -5.00809e-11 2.58082e-10)
(0.000723678 3.43498e-12 -2.58261e-10)
(0.000723668 -8.58423e-11 3.19895e-10)
(0.000516782 -1.3041e-05 1.17021e-05)
(0.000714431 -6.78812e-07 6.90395e-07)
(0.000592043 4.06421e-07 -4.18619e-07)
(0.00066699 -2.49654e-07 2.55907e-07)
(0.000621003 1.53012e-07 -1.56127e-07)
(0.00064924 -9.40731e-08 9.49154e-08)
(0.000631927 5.84796e-08 -5.7562e-08)
(0.000642501 -3.6061e-08 3.46357e-08)
(0.000636097 2.16705e-08 -2.03782e-08)
(0.000639916 -1.27484e-08 1.17578e-08)
(0.000637683 7.12733e-09 -6.54731e-09)
(0.000638947 -3.90114e-09 3.53562e-09)
(0.000638258 1.99047e-09 -1.85626e-09)
(0.00063861 -9.71791e-10 9.41445e-10)
(0.000638431 4.73531e-10 -4.98887e-10)
(0.00063852 -2.20443e-10 2.63549e-10)
(0.000638483 1.07925e-10 -1.45012e-10)
(0.000638499 -7.23604e-11 1.07495e-10)
(0.000638492 6.08014e-11 -7.82822e-11)
(0.000638496 -5.04804e-11 7.66611e-11)
(0.000638493 4.04873e-11 -6.42689e-11)
(0.000638497 -2.66606e-13 4.33223e-11)
(0.000638494 -1.2702e-11 -4.12812e-11)
(0.000638499 3.14928e-11 1.98513e-11)
(0.000638492 -3.94372e-11 -9.36957e-12)
(0.000638502 4.61534e-11 -2.32038e-12)
(0.00063849 -3.48023e-11 5.10036e-12)
(0.000638508 8.74877e-11 -6.60322e-11)
(0.00063849 -5.87533e-11 5.52429e-11)
(0.000638515 1.02314e-10 -1.28856e-10)
(0.00063849 -7.26742e-11 1.08583e-10)
(0.000638522 9.9307e-11 -1.91669e-10)
(0.000638493 -1.33291e-10 2.68527e-10)
(0.000638512 6.25554e-11 -2.11026e-10)
(0.000638491 -1.02347e-10 2.70307e-10)
(0.000638507 5.47549e-11 -2.71855e-10)
(0.000638497 -1.27306e-10 3.51782e-10)
(0.000397942 -1.44294e-05 1.17189e-05)
(0.000549727 -6.60538e-07 6.31425e-07)
(0.000455333 3.96545e-07 -3.82689e-07)
(0.000513038 -2.43315e-07 2.33875e-07)
(0.000477647 1.48983e-07 -1.42684e-07)
(0.000499363 -9.12771e-08 8.6752e-08)
(0.000486055 5.6112e-08 -5.2663e-08)
(0.0004942 -3.42482e-08 3.17325e-08)
(0.000489241 2.04618e-08 -1.86949e-08)
(0.000492218 -1.19261e-08 1.0805e-08)
(0.000490461 6.64926e-09 -6.01568e-09)
(0.000491464 -3.58696e-09 3.25332e-09)
(0.000490911 1.81307e-09 -1.70184e-09)
(0.000491197 -9.19427e-10 8.64506e-10)
(0.000491051 4.50079e-10 -4.56944e-10)
(0.000491124 -2.00893e-10 2.36546e-10)
(0.000491094 1.14837e-10 -1.29769e-10)
(0.000491107 -8.19809e-11 9.64882e-11)
(0.000491101 6.9577e-11 -7.06487e-11)
(0.000491105 -5.82495e-11 6.93568e-11)
(0.000491102 4.79214e-11 -5.86279e-11)
(0.000491106 -1.3874e-11 3.73795e-11)
(0.000491103 3.36623e-12 -3.63871e-11)
(0.000491107 1.69777e-11 1.62205e-11)
(0.000491102 -2.69927e-11 -7.37207e-12)
(0.000491109 3.52977e-11 -2.78708e-12)
(0.0004911 -3.10496e-11 2.59946e-12)
(0.000491114 8.15072e-11 -6.30419e-11)
(0.000491102 -6.11654e-11 4.83561e-11)
(0.000491119 1.0772e-10 -1.20569e-10)
(0.000491103 -8.94828e-11 9.51849e-11)
(0.000491125 1.42565e-10 -1.75395e-10)
(0.000491105 -1.86551e-10 2.47915e-10)
(0.000491117 1.27119e-10 -1.85211e-10)
(0.000491102 -1.64576e-10 2.4279e-10)
(0.000491113 1.58056e-10 -2.42665e-10)
(0.000491105 -2.04319e-10 3.21681e-10)
(0.00019472 -7.40012e-06 7.40012e-06)
(0.000268701 -3.514e-07 3.51424e-07)
(0.000222365 2.13417e-07 -2.13415e-07)
(0.000250595 -1.30626e-07 1.30624e-07)
(0.000233292 7.9939e-08 -7.99291e-08)
(0.000243901 -4.88896e-08 4.89644e-08)
(0.0002374 2.98412e-08 -3.01063e-08)
(0.000241392 -1.81222e-08 1.83566e-08)
(0.000238945 1.08491e-08 -1.09501e-08)
(0.000240426 -6.33589e-09 6.3932e-09)
(0.000239543 3.57985e-09 -3.59017e-09)
(0.000240051 -1.9433e-09 1.95187e-09)
(0.000239769 1.00506e-09 -1.02093e-09)
(0.000239915 -5.22006e-10 4.98772e-10)
(0.000239841 2.57741e-10 -2.52427e-10)
(0.000239878 -1.20725e-10 1.28548e-10)
(0.000239863 6.88538e-11 -6.70892e-11)
(0.00023987 -4.71103e-11 4.51144e-11)
(0.000239867 3.75346e-11 -3.48365e-11)
(0.000239869 -3.08423e-11 3.0642e-11)
(0.000239867 2.39282e-11 -2.34863e-11)
(0.000239869 -1.18041e-11 1.11046e-11)
(0.000239868 5.18495e-12 -3.37946e-12)
(0.00023987 4.27711e-12 -4.62369e-12)
(0.000239868 -1.01803e-11 1.0663e-11)
(0.00023987 1.4805e-11 -1.55401e-11)
(0.000239867 -1.84783e-11 1.82478e-11)
(0.000239873 3.49216e-11 -3.34928e-11)
(0.000239869 -3.54514e-11 3.35632e-11)
(0.000239876 5.21492e-11 -4.77122e-11)
(0.00023987 -5.43001e-11 4.87037e-11)
(0.00023988 8.04912e-11 -6.13408e-11)
(0.000239871 -9.82056e-11 7.81334e-11)
(0.000239874 8.58379e-11 -6.74361e-11)
(0.000239868 -9.56816e-11 8.09654e-11)
(0.000239872 1.07169e-10 -7.05937e-11)
(0.000239869 -1.17144e-10 9.38584e-11)
(0.000397942 1.1719e-05 1.44294e-05)
(0.000549726 6.31424e-07 6.60562e-07)
(0.000455334 -3.82673e-07 -3.96537e-07)
(0.000513036 2.33868e-07 2.43306e-07)
(0.000477648 -1.4268e-07 -1.48956e-07)
(0.000499362 8.66553e-08 9.14462e-08)
(0.000486054 -5.25705e-08 -5.64866e-08)
(0.000494202 3.16983e-08 3.45693e-08)
(0.000489239 -1.8645e-08 -2.05898e-08)
(0.00049222 1.07857e-08 1.19566e-08)
(0.00049046 -5.99207e-09 -6.65936e-09)
(0.000491465 3.22933e-09 3.57738e-09)
(0.000490911 -1.68814e-09 -1.83512e-09)
(0.000491197 8.57771e-10 8.72008e-10)
(0.000491051 -4.56816e-10 -4.40237e-10)
(0.000491124 2.2619e-10 2.08848e-10)
(0.000491094 -1.24538e-10 -1.15318e-10)
(0.000491107 9.4572e-11 8.01257e-11)
(0.000491101 -6.9452e-11 -6.63306e-11)
(0.000491105 7.00866e-11 5.93857e-11)
(0.000491102 -5.99891e-11 -4.68274e-11)
(0.000491106 3.64855e-11 1.51145e-11)
(0.000491103 -3.84033e-11 -2.138e-13)
(0.000491107 1.45118e-11 -1.58199e-11)
(0.000491102 -6.06448e-12 2.76553e-11)
(0.000491109 -3.11103e-12 -3.61865e-11)
(0.000491101 -2.05095e-13 3.59422e-11)
(0.000491114 -7.45621e-11 -7.30981e-11)
(0.000491102 4.93466e-11 6.21508e-11)
(0.00049112 -1.44404e-10 -9.03116e-11)
(0.000491103 1.00931e-10 8.59669e-11)
(0.000491125 -2.00817e-10 -1.03474e-10)
(0.000491105 2.86292e-10 1.42504e-10)
(0.000491117 -1.9275e-10 -1.02518e-10)
(0.000491102 2.59385e-10 1.37231e-10)
(0.000491113 -2.59682e-10 -9.73428e-11)
(0.000491105 3.4827e-10 1.35071e-10)
(0.000906327 2.49936e-05 2.49936e-05)
(0.00125322 1.21909e-06 1.21909e-06)
(0.00103872 -7.30626e-07 -7.3063e-07)
(0.00117011 4.48307e-07 4.48311e-07)
(0.00108949 -2.74688e-07 -2.74692e-07)
(0.00113898 1.69076e-07 1.69064e-07)
(0.00110866 -1.04708e-07 -1.04701e-07)
(0.00112717 6.41627e-08 6.41405e-08)
(0.00111596 -3.82539e-08 -3.82551e-08)
(0.00112265 2.21409e-08 2.21575e-08)
(0.00111873 -1.23042e-08 -1.2314e-08)
(0.00112095 6.54575e-09 6.5565e-09)
(0.00111973 -3.33102e-09 -3.33525e-09)
(0.00112037 1.53022e-09 1.54293e-09)
(0.00112004 -7.5809e-10 -7.64886e-10)
(0.0011202 3.65388e-10 3.67809e-10)
(0.00112013 -2.07733e-10 -2.07599e-10)
(0.00112016 1.42311e-10 1.42144e-10)
(0.00112015 -1.23658e-10 -1.23094e-10)
(0.00112016 1.08226e-10 1.0771e-10)
(0.00112015 -8.13237e-11 -8.08537e-11)
(0.00112016 2.43438e-11 2.36676e-11)
(0.00112015 1.59456e-11 1.62773e-11)
(0.00112016 -3.96206e-11 -4.03206e-11)
(0.00112015 6.60849e-11 6.64616e-11)
(0.00112017 -8.26102e-11 -8.30115e-11)
(0.00112015 9.25283e-11 9.25647e-11)
(0.00112018 -1.24752e-10 -1.25462e-10)
(0.00112015 1.27952e-10 1.27965e-10)
(0.00112019 -1.25783e-10 -1.29177e-10)
(0.00112015 1.59743e-10 1.62046e-10)
(0.0011202 -1.44713e-10 -1.47696e-10)
(0.00112015 1.86133e-10 1.88779e-10)
(0.00112018 -1.69534e-10 -1.74079e-10)
(0.00112015 2.0457e-10 2.09394e-10)
(0.00112017 -1.32631e-10 -1.35676e-10)
(0.00112016 1.63045e-10 1.6386e-10)
(0.00122922 2.46768e-05 2.78973e-05)
(0.00170087 1.32316e-06 1.41611e-06)
(0.00141028 -7.89702e-07 -8.48041e-07)
(0.00158847 4.84586e-07 5.20147e-07)
(0.00147909 -2.9686e-07 -3.18671e-07)
(0.00154628 1.82893e-07 1.96146e-07)
(0.00150509 -1.14044e-07 -1.21697e-07)
(0.00153018 7.0542e-08 7.46281e-08)
(0.00151506 -4.22162e-08 -4.44006e-08)
(0.00152403 2.46886e-08 2.56616e-08)
(0.00151882 -1.3886e-08 -1.41874e-08)
(0.00152175 7.55573e-09 7.53455e-09)
(0.00152016 -3.97257e-09 -3.81218e-09)
(0.00152098 1.78658e-09 1.73079e-09)
(0.00152056 -9.28017e-10 -8.64775e-10)
(0.00152077 4.41293e-10 4.13042e-10)
(0.00152068 -2.22426e-10 -2.32562e-10)
(0.00152072 1.40688e-10 1.63965e-10)
(0.0015207 -1.0929e-10 -1.42622e-10)
(0.00152071 1.05746e-10 1.29216e-10)
(0.0015207 -7.96927e-11 -9.97604e-11)
(0.00152071 1.01191e-11 2.50116e-11)
(0.0015207 2.0085e-11 1.70435e-11)
(0.00152071 -4.63155e-11 -4.78859e-11)
(0.0015207 6.66659e-11 7.72895e-11)
(0.00152072 -7.80876e-11 -9.66417e-11)
(0.00152069 6.49815e-11 9.81591e-11)
(0.00152073 -1.4241e-10 -1.59969e-10)
(0.00152069 1.02652e-10 1.42542e-10)
(0.00152075 -1.47981e-10 -1.69748e-10)
(0.00152068 1.11357e-10 1.82481e-10)
(0.00152076 -9.00638e-11 -1.74814e-10)
(0.00152069 1.67798e-10 2.45036e-10)
(0.00152075 -4.33498e-11 -1.85855e-10)
(0.00152069 1.25441e-10 2.52838e-10)
(0.00152073 4.16427e-11 -1.32796e-10)
(0.00152071 5.50594e-11 1.96547e-10)
(0.00142153 1.69245e-05 2.84918e-05)
(0.00196786 9.47651e-07 1.47898e-06)
(0.00163204 -5.63763e-07 -8.85625e-07)
(0.0018381 3.4611e-07 5.4313e-07)
(0.00171156 -2.12111e-07 -3.32793e-07)
(0.00178933 1.31058e-07 2.04946e-07)
(0.00174163 -8.22401e-08 -1.27467e-07)
(0.00177065 5.11938e-08 7.83637e-08)
(0.00175323 -3.06548e-08 -4.6654e-08)
(0.0017635 1.79104e-08 2.69995e-08)
(0.00175758 -1.00912e-08 -1.49132e-08)
(0.00176089 5.48478e-09 7.93152e-09)
(0.00175911 -2.90128e-09 -4.00795e-09)
(0.00176002 1.23586e-09 1.79919e-09)
(0.00175955 -6.57857e-10 -9.00859e-10)
(0.00175978 2.99815e-10 4.24242e-10)
(0.00175968 -1.51989e-10 -2.33912e-10)
(0.00175973 9.18201e-11 1.65576e-10)
(0.00175971 -7.12494e-11 -1.447e-10)
(0.00175972 7.42581e-11 1.33278e-10)
(0.00175971 -5.50339e-11 -1.03746e-10)
(0.00175972 -6.14821e-13 1.8735e-11)
(0.00175971 2.3769e-11 2.30033e-11)
(0.00175973 -3.95054e-11 -5.67587e-11)
(0.00175971 5.42823e-11 8.55747e-11)
(0.00175974 -6.04959e-11 -1.04294e-10)
(0.0017597 4.53307e-11 9.73248e-11)
(0.00175975 -1.02504e-10 -1.76888e-10)
(0.00175969 6.45912e-11 1.42993e-10)
(0.00175977 -8.8063e-11 -1.86033e-10)
(0.00175968 5.37203e-11 1.79029e-10)
(0.00175978 -6.34504e-12 -1.70524e-10)
(0.00175969 6.79135e-11 2.53077e-10)
(0.00175976 4.30272e-11 -1.59002e-10)
(0.00175969 2.65192e-11 2.43469e-10)
(0.00175975 1.4326e-10 -9.06856e-11)
(0.00175972 -8.26685e-11 1.78256e-10)
(0.0015116 5.9585e-06 2.85304e-05)
(0.00209301 3.38241e-07 1.49496e-06)
(0.00173603 -2.00807e-07 -8.95277e-07)
(0.00195513 1.23276e-07 5.48988e-07)
(0.00182057 -7.55105e-08 -3.36368e-07)
(0.00190329 4.69004e-08 2.07135e-07)
(0.00185254 -2.95943e-08 -1.28943e-07)
(0.00188339 1.85139e-08 7.93617e-08)
(0.00186491 -1.09639e-08 -4.72657e-08)
(0.00187578 6.26227e-09 2.73844e-08)
(0.00186954 -3.53265e-09 -1.5119e-08)
(0.00187302 1.86331e-09 8.04942e-09)
(0.00187115 -1.01129e-09 -4.06736e-09)
(0.0018721 3.47653e-10 1.82077e-09)
(0.00187162 -2.12749e-10 -9.13772e-10)
(0.00187186 8.51498e-11 4.26708e-10)
(0.00187175 -5.59105e-11 -2.31825e-10)
(0.0018718 3.15829e-11 1.64707e-10)
(0.00187178 -2.45053e-11 -1.44073e-10)
(0.00187179 3.29374e-11 1.34204e-10)
(0.00187178 -2.35686e-11 -1.05321e-10)
(0.00187179 3.53084e-12 1.60261e-11)
(0.00187178 7.51721e-12 2.39698e-11)
(0.00187179 -8.90604e-12 -5.95378e-11)
(0.00187177 1.76955e-11 8.7141e-11)
(0.0018718 -1.95929e-11 -1.0497e-10)
(0.00187176 1.72948e-11 9.28259e-11)
(0.00187182 -2.95524e-11 -1.83983e-10)
(0.00187175 1.99872e-11 1.40166e-10)
(0.00187184 -1.01034e-11 -1.95916e-10)
(0.00187174 9.18928e-12 1.75177e-10)
(0.00187185 4.12876e-11 -1.72046e-10)
(0.00187175 -8.11939e-12 2.62341e-10)
(0.00187183 4.84212e-11 -1.46372e-10)
(0.00187176 -1.72271e-11 2.41296e-10)
(0.00187182 1.15444e-10 -7.61679e-11)
(0.00187179 -1.30292e-10 1.79932e-10)
(0.0015116 -5.95835e-06 2.85304e-05)
(0.00209301 -3.38275e-07 1.49496e-06)
(0.00173603 2.00927e-07 -8.95276e-07)
(0.00195514 -1.23391e-07 5.48988e-07)
(0.00182057 7.56832e-08 -3.36366e-07)
(0.00190329 -4.62746e-08 2.07119e-07)
(0.00185254 2.88324e-08 -1.28923e-07)
(0.00188339 -1.78672e-08 7.93403e-08)
(0.00186491 1.09407e-08 -4.72595e-08)
(0.00187578 -6.69152e-09 2.73904e-08)
(0.00186954 3.74827e-09 -1.512e-08)
(0.00187302 -2.15272e-09 8.04785e-09)
(0.00187115 1.08167e-09 -4.06649e-09)
(0.0018721 -6.18182e-10 1.82302e-09)
(0.00187162 2.78228e-10 -9.13762e-10)
(0.00187186 -1.39857e-10 4.27032e-10)
(0.00187175 4.50064e-11 -2.31589e-10)
(0.0018718 -3.21211e-11 1.64355e-10)
(0.00187178 2.54002e-11 -1.44177e-10)
(0.00187179 -1.39118e-11 1.33861e-10)
(0.00187178 1.36141e-11 -1.04983e-10)
(0.00187179 1.10759e-11 1.61887e-11)
(0.00187178 -1.0163e-11 2.4299e-11)
(0.00187179 2.63772e-11 -5.9891e-11)
(0.00187177 -2.30701e-11 8.75693e-11)
(0.0018718 2.47777e-11 -1.05302e-10)
(0.00187176 -5.70804e-12 9.39019e-11)
(0.00187182 5.87144e-11 -1.8381e-10)
(0.00187175 -2.21807e-11 1.41294e-10)
(0.00187184 8.46205e-11 -1.96487e-10)
(0.00187174 -2.90959e-11 1.77405e-10)
(0.00187185 9.02728e-11 -1.74746e-10)
(0.00187175 -1.02998e-10 2.63055e-10)
(0.00187183 3.1189e-11 -1.50069e-10)
(0.00187176 -5.8352e-11 2.43213e-10)
(0.00187182 5.95833e-11 -8.10925e-11)
(0.00187179 -1.70331e-10 1.84478e-10)
(0.00142153 -1.69244e-05 2.84918e-05)
(0.00196786 -9.47672e-07 1.47898e-06)
(0.00163204 5.63857e-07 -8.85624e-07)
(0.0018381 -3.46201e-07 5.4313e-07)
(0.00171156 2.12257e-07 -3.32791e-07)
(0.00178933 -1.30452e-07 2.0489e-07)
(0.00174163 8.14401e-08 -1.27398e-07)
(0.00177064 -5.05055e-08 7.82992e-08)
(0.00175323 3.05597e-08 -4.66331e-08)
(0.0017635 -1.82378e-08 2.70167e-08)
(0.00175758 1.02481e-08 -1.49167e-08)
(0.00176089 -5.7135e-09 7.92966e-09)
(0.00175911 2.93932e-09 -4.00626e-09)
(0.00176002 -1.47567e-09 1.80707e-09)
(0.00175955 7.13932e-10 -9.01922e-10)
(0.00175978 -3.37181e-10 4.24709e-10)
(0.00175968 1.41853e-10 -2.32685e-10)
(0.00175973 -9.24489e-11 1.64678e-10)
(0.00175971 7.39141e-11 -1.44702e-10)
(0.00175972 -5.79609e-11 1.32471e-10)
(0.00175971 4.75982e-11 -1.03091e-10)
(0.00175972 1.30745e-11 1.87929e-11)
(0.00175971 -2.4572e-11 2.33671e-11)
(0.00175973 5.46727e-11 -5.78821e-11)
(0.00175971 -5.89065e-11 8.66157e-11)
(0.00175974 6.48912e-11 -1.04951e-10)
(0.0017597 -3.44725e-11 9.88457e-11)
(0.00175975 1.31487e-10 -1.78315e-10)
(0.00175969 -6.73047e-11 1.45216e-10)
(0.00175977 1.59616e-10 -1.91444e-10)
(0.00175968 -7.51477e-11 1.84473e-10)
(0.00175978 1.35945e-10 -1.81277e-10)
(0.00175969 -1.82351e-10 2.61481e-10)
(0.00175976 3.78543e-11 -1.68968e-10)
(0.00175969 -1.04954e-10 2.51242e-10)
(0.00175975 3.19486e-11 -1.05975e-10)
(0.00175972 -1.97175e-10 1.96266e-10)
(0.00122922 -2.46767e-05 2.78974e-05)
(0.00170087 -1.32315e-06 1.41612e-06)
(0.00141028 7.89757e-07 -8.48042e-07)
(0.00158848 -4.8464e-07 5.20149e-07)
(0.00147908 2.96964e-07 -3.18669e-07)
(0.00154629 -1.8235e-07 1.96063e-07)
(0.00150509 1.13168e-07 -1.21579e-07)
(0.00153018 -6.9769e-08 7.45239e-08)
(0.00151507 4.19955e-08 -4.43704e-08)
(0.00152402 -2.48245e-08 2.56852e-08)
(0.00151882 1.39437e-08 -1.41992e-08)
(0.00152175 -7.68004e-09 7.53937e-09)
(0.00152016 3.95496e-09 -3.8135e-09)
(0.00152098 -1.97481e-09 1.7446e-09)
(0.00152056 9.69884e-10 -8.66344e-10)
(0.00152077 -4.48316e-10 4.13974e-10)
(0.00152068 2.15823e-10 -2.30432e-10)
(0.00152072 -1.43043e-10 1.62577e-10)
(0.0015207 1.15969e-10 -1.42185e-10)
(0.00152071 -9.49581e-11 1.27773e-10)
(0.0015207 7.7121e-11 -9.83311e-11)
(0.00152071 -2.16481e-12 2.46258e-11)
(0.0015207 -1.69393e-11 1.78882e-11)
(0.00152071 5.60037e-11 -4.99135e-11)
(0.0015207 -6.85699e-11 7.9132e-11)
(0.00152072 7.98778e-11 -9.7864e-11)
(0.00152069 -5.41531e-11 1.01073e-10)
(0.00152073 1.67766e-10 -1.62705e-10)
(0.00152069 -1.0371e-10 1.47312e-10)
(0.00152075 2.06887e-10 -1.80073e-10)
(0.00152068 -1.29951e-10 1.9355e-10)
(0.00152076 2.08161e-10 -1.92972e-10)
(0.00152069 -2.80103e-10 2.60153e-10)
(0.00152075 1.21182e-10 -2.03212e-10)
(0.00152069 -2.0363e-10 2.66058e-10)
(0.00152073 1.29193e-10 -1.56453e-10)
(0.00152071 -2.87848e-10 2.22693e-10)
(0.000906325 -2.49936e-05 2.49936e-05)
(0.00125322 -1.21905e-06 1.21909e-06)
(0.00103872 7.3061e-07 -7.30629e-07)
(0.00117012 -4.48301e-07 4.48315e-07)
(0.00108949 2.74717e-07 -2.74695e-07)
(0.00113899 -1.68621e-07 1.6897e-07)
(0.00110866 1.04014e-07 -1.04609e-07)
(0.00112716 -6.35785e-08 6.40818e-08)
(0.00111596 3.79674e-08 -3.8248e-08)
(0.00112264 -2.20917e-08 2.22041e-08)
(0.00111873 1.22281e-08 -1.23398e-08)
(0.00112095 -6.53577e-09 6.57762e-09)
(0.00111973 3.25351e-09 -3.34691e-09)
(0.00112037 -1.62166e-09 1.55761e-09)
(0.00112004 7.78518e-10 -7.68109e-10)
(0.0011202 -3.34248e-10 3.71253e-10)
(0.00112013 1.98211e-10 -2.03571e-10)
(0.00112016 -1.43141e-10 1.40531e-10)
(0.00112015 1.31185e-10 -1.20767e-10)
(0.00112016 -1.05004e-10 1.06373e-10)
(0.00112015 8.64115e-11 -7.94719e-11)
(0.00112016 -1.99557e-11 2.18576e-11)
(0.00112015 -7.47593e-12 1.65376e-11)
(0.00112016 4.3834e-11 -4.3122e-11)
(0.00112015 -6.52947e-11 6.83321e-11)
(0.00112017 8.1588e-11 -8.39596e-11)
(0.00112014 -7.60317e-11 9.23433e-11)
(0.00112018 1.55767e-10 -1.32385e-10)
(0.00112014 -1.23203e-10 1.30587e-10)
(0.00112019 1.87237e-10 -1.48127e-10)
(0.00112014 -1.70264e-10 1.70484e-10)
(0.0011202 2.46045e-10 -1.69357e-10)
(0.00112015 -3.07657e-10 2.14586e-10)
(0.00112018 2.22743e-10 -1.86415e-10)
(0.00112015 -2.79257e-10 2.24246e-10)
(0.00112017 2.61335e-10 -1.53748e-10)
(0.00112016 -3.27561e-10 1.9795e-10)
(0.000397941 -1.17189e-05 1.44294e-05)
(0.000549727 -6.31387e-07 6.60577e-07)
(0.000455333 3.82688e-07 -3.96539e-07)
(0.000513038 -2.33876e-07 2.43309e-07)
(0.000477646 1.42701e-07 -1.48957e-07)
(0.000499363 -8.66081e-08 9.14407e-08)
(0.000486055 5.22186e-08 -5.65527e-08)
(0.0004942 -3.1345e-08 3.46264e-08)
(0.000489241 1.85222e-08 -2.06286e-08)
(0.000492218 -1.07129e-08 1.20067e-08)
(0.000490461 5.99077e-09 -6.6726e-09)
(0.000491464 -3.23593e-09 3.5859e-09)
(0.000490911 1.67055e-09 -1.84227e-09)
(0.000491197 -9.04087e-10 8.68656e-10)
(0.000491051 4.66257e-10 -4.37805e-10)
(0.000491124 -2.22083e-10 2.14514e-10)
(0.000491094 1.32052e-10 -1.13854e-10)
(0.000491107 -9.97011e-11 7.87303e-11)
(0.000491101 7.54945e-11 -6.51281e-11)
(0.000491105 -6.96926e-11 5.83801e-11)
(0.000491102 6.00787e-11 -4.58647e-11)
(0.000491106 -3.82467e-11 1.46762e-11)
(0.000491103 4.00719e-11 9.18673e-13)
(0.000491107 -1.67307e-11 -1.68666e-11)
(0.000491102 8.46268e-12 2.84375e-11)
(0.000491109 1.31673e-12 -3.68253e-11)
(0.0004911 -9.13143e-13 3.63002e-11)
(0.000491114 6.74872e-11 -7.25006e-11)
(0.000491102 -4.98275e-11 6.18427e-11)
(0.000491119 1.30947e-10 -9.00348e-11)
(0.000491103 -1.02214e-10 8.47971e-11)
(0.000491125 2.10675e-10 -1.01084e-10)
(0.000491105 -2.86809e-10 1.36829e-10)
(0.000491117 2.14536e-10 -9.95846e-11)
(0.000491102 -2.68982e-10 1.33905e-10)
(0.000491113 3.06546e-10 -9.21636e-11)
(0.000491105 -3.69717e-10 1.42351e-10)
(0.000516783 1.17022e-05 1.3041e-05)
(0.00071443 6.90403e-07 6.78818e-07)
(0.000592045 -4.18599e-07 -4.06393e-07)
(0.000666988 2.55886e-07 2.49629e-07)
(0.000621005 -1.56097e-07 -1.52968e-07)
(0.000649238 9.48911e-08 9.43027e-08)
(0.000631927 -5.75754e-08 -5.88553e-08)
(0.000642503 3.46569e-08 3.63742e-08)
(0.000636095 -2.03604e-08 -2.17593e-08)
(0.000639918 1.17358e-08 1.26994e-08)
(0.000637682 -6.52048e-09 -7.10797e-09)
(0.000638948 3.50101e-09 3.84785e-09)
(0.000638257 -1.84224e-09 -1.99845e-09)
(0.00063861 9.19261e-10 8.97684e-10)
(0.000638431 -4.8857e-10 -4.58834e-10)
(0.00063852 2.56277e-10 2.18216e-10)
(0.000638483 -1.42718e-10 -1.11206e-10)
(0.000638499 1.04978e-10 7.24478e-11)
(0.000638492 -7.84764e-11 -5.89875e-11)
(0.000638496 7.64755e-11 5.47625e-11)
(0.000638493 -6.39064e-11 -4.12401e-11)
(0.000638497 4.45626e-11 4.32964e-12)
(0.000638494 -3.99442e-11 1.39235e-11)
(0.000638499 1.90958e-11 -2.71132e-11)
(0.000638492 -7.32666e-12 3.83982e-11)
(0.000638502 -4.07145e-12 -4.52134e-11)