/*--------------------------------*- C++ -*----------------------------------*\
  =========                 |
  \\      /  F ield         | OpenFOAM: The Open Source CFD Toolbox
   \\    /   O peration     | Website:  https://openfoam.org
    \\  /    A nd           | Version:  13
     \\/     M anipulation  |
\*---------------------------------------------------------------------------*/
FoamFile
{
    format      ascii;
    class       surfaceScalarField;
    location    "28";
    object      phi;
}
// * * * * * * * * * * * * * * * * * * * * * * * * * * * * * * * * * * * * * //

dimensions      [0 3 -1 0 0 0 0];

internalField   nonuniform List<scalar> 
28364
(
8.31015e-14
3.83704e-13
3.83704e-13
6.1636e-14
1.07328e-14
1.07328e-14
7.58833e-14
-7.12369e-15
-7.12349e-15
6.61034e-14
4.8898e-15
4.89001e-15
7.28613e-14
-3.37873e-15
-3.37894e-15
6.81652e-14
2.34644e-15
2.34653e-15
7.14581e-14
-1.6451e-15
-1.64471e-15
6.91248e-14
1.16505e-15
1.1645e-15
7.07706e-14
-8.20302e-16
-8.20844e-16
6.96439e-14
5.66452e-16
5.66175e-16
7.03759e-14
-3.68003e-16
-3.68328e-16
6.9938e-14
2.24251e-16
2.2385e-16
7.01758e-14
-1.24218e-16
-1.24263e-16
7.00657e-14
5.84145e-17
5.89654e-17
7.01066e-14
-2.3758e-17
-2.28382e-17
7.01e-14
4.36723e-18
4.27009e-18
7.00919e-14
2.8427e-18
2.79519e-18
7.01037e-14
-6.04273e-18
-5.99968e-18
7.0088e-14
6.95493e-18
7.10319e-18
7.0104e-14
-7.43277e-18
-7.49738e-18
7.00874e-14
7.80151e-18
7.72231e-18
7.01034e-14
-7.67413e-18
-7.69836e-18
7.00857e-14
7.68291e-18
7.75879e-18
7.01028e-14
-7.43237e-18
-7.59217e-18
7.00856e-14
7.56156e-18
7.58819e-18
7.01025e-14
-7.41342e-18
-7.42123e-18
7.0087e-14
7.2453e-18
7.38252e-18
7.01019e-14
-6.69517e-18
-6.74169e-18
7.00887e-14
6.14188e-18
6.15603e-18
7.00997e-14
-5.217e-18
-5.23623e-18
7.00895e-14
4.1396e-18
4.22328e-18
7.00985e-14
-3.55324e-18
-3.63816e-18
7.00907e-14
3.59347e-18
3.62993e-18
7.00991e-14
-3.85824e-18
-3.86826e-18
7.00898e-14
3.94034e-18
4.00313e-18
7.00993e-14
-4.08716e-18
-4.1891e-18
7.009e-14
4.08531e-18
4.13554e-18
7.00987e-14
-3.87984e-18
-3.9358e-18
7.00896e-14
3.50901e-18
3.81317e-18
7.00987e-14
-3.62543e-18
-4.01608e-18
7.00899e-14
3.68297e-18
3.90576e-18
7.00991e-14
-3.93101e-18
-3.94536e-18
7.00897e-14
3.78967e-18
4.12946e-18
7.00983e-14
-3.26519e-18
-3.92718e-18
7.00914e-14
2.90603e-18
3.02626e-18
7.00967e-14
-1.99781e-18
-2.17213e-18
7.0093e-14
1.27662e-18
1.38955e-18
7.00956e-14
-7.0323e-19
-8.45515e-19
7.00933e-14
7.30734e-19
8.08986e-19
7.00955e-14
-7.48953e-19
-7.9202e-19
9.649e-19
9.4276e-19
1.64162e-13
4.53308e-13
6.16744e-13
1.40574e-13
1.5404e-14
1.8917e-14
1.55921e-13
-1.00721e-14
-1.23977e-14
1.4546e-13
6.87449e-15
8.47538e-15
1.52687e-13
-4.74193e-15
-5.86249e-15
1.47663e-13
3.28225e-15
4.07903e-15
1.51191e-13
-2.30023e-15
-2.86471e-15
1.48679e-13
1.63923e-15
2.02741e-15
1.5046e-13
-1.16811e-15
-1.41985e-15
1.49242e-13
8.42021e-16
9.60412e-16
1.50031e-13
-5.60807e-16
-6.0936e-16
1.49566e-13
3.6455e-16
3.5428e-16
1.49814e-13
-2.17974e-16
-1.84388e-16
1.49704e-13
1.08436e-16
8.04507e-17
1.49741e-13
-5.41381e-17
-2.32496e-17
1.49738e-13
1.55728e-17
-2.06365e-18
1.49727e-13
-4.61722e-18
1.14927e-17
1.49739e-13
-4.8076e-18
-1.46725e-17
1.49722e-13
5.60768e-18
1.43833e-17
1.49739e-13
-6.8256e-18
-1.50096e-17
1.49721e-13
6.7717e-18
1.61307e-17
1.49738e-13
-6.73935e-18
-1.61602e-17
1.49718e-13
6.6748e-18
1.44238e-17
1.49737e-13
-6.02844e-18
-1.44085e-17
1.49718e-13
6.03871e-18
1.49077e-17
1.49737e-13
-6.01874e-18
-1.44368e-17
1.4972e-13
6.9054e-18
1.4785e-17
1.49736e-13
-5.92599e-18
-1.31696e-17
1.49722e-13
5.51038e-18
1.2589e-17
1.49733e-13
-4.58176e-18
-1.07757e-17
1.49722e-13
2.57032e-18
7.5543e-18
1.49732e-13
-1.78476e-18
-6.44872e-18
1.49724e-13
2.0616e-18
7.88569e-18
1.49733e-13
-2.50153e-18
-8.38103e-18
1.49723e-13
2.30396e-18
8.03861e-18
1.49733e-13
-3.0571e-18
-7.99493e-18
1.49723e-13
3.25141e-18
7.99547e-18
1.49732e-13
-3.07907e-18
-7.7576e-18
1.49722e-13
2.01411e-18
6.68147e-18
1.49732e-13
-2.44955e-18
-7.26718e-18
1.49722e-13
2.88475e-18
7.01255e-18
1.49733e-13
-3.81384e-18
-6.59598e-18
1.49722e-13
3.57445e-18
6.74363e-18
1.49732e-13
-2.61278e-18
-6.49161e-18
1.49724e-13
2.26815e-18
5.53188e-18
1.4973e-13
-9.17547e-19
-3.64318e-18
1.49726e-13
-4.61943e-20
2.33375e-18
1.49729e-13
5.17508e-19
-9.98237e-19
1.49726e-13
-1.35919e-19
1.36858e-18
1.49729e-13
-2.22616e-19
-1.18589e-18
1.58032e-18
2.56291e-19
2.15147e-13
4.1866e-13
6.70011e-13
1.93516e-13
1.53246e-14
2.1711e-14
2.07492e-13
-9.91534e-15
-1.41321e-14
1.98018e-13
6.72641e-15
9.62175e-15
2.04566e-13
-4.63348e-15
-6.6555e-15
2.00007e-13
3.20026e-15
4.63223e-15
2.03216e-13
-2.24476e-15
-3.25602e-15
2.00923e-13
1.61062e-15
2.31023e-15
2.02549e-13
-1.16151e-15
-1.61846e-15
2.01449e-13
8.58745e-16
1.10005e-15
2.02151e-13
-5.81754e-16
-6.92906e-16
2.01752e-13
3.89481e-16
4.0252e-16
2.01954e-13
-2.39984e-16
-2.09414e-16
2.01873e-13
1.21822e-16
8.81377e-17
2.01893e-13
-6.47744e-17
-2.57521e-17
2.01898e-13
2.0374e-17
-3.68985e-18
2.01882e-13
-8.60524e-18
1.20433e-17
2.01896e-13
-2.33441e-18
-1.67132e-17
2.01878e-13
3.01004e-18
1.6161e-17
2.01895e-13
-4.38526e-18
-1.68473e-17
2.01877e-13
4.30482e-18
1.774e-17
2.01894e-13
-3.84366e-18
-1.81513e-17
2.01874e-13
3.69936e-18
1.65742e-17
2.01892e-13
-2.74885e-18
-1.64009e-17
2.01873e-13
3.10022e-18
1.63705e-17
2.01892e-13
-3.30456e-18
-1.57367e-17
2.01875e-13
4.49793e-18
1.68053e-17
2.01892e-13
-3.87572e-18
-1.44628e-17
2.01877e-13
3.7094e-18
1.3776e-17
2.01889e-13
-2.63694e-18
-1.20112e-17
2.01878e-13
2.64772e-19
8.36909e-18
2.01888e-13
6.0448e-19
-7.15862e-18
2.01879e-13
-1.21774e-19
8.64313e-18
2.01889e-13
-6.49612e-19
-9.05547e-18
2.01878e-13
3.50008e-19
8.64952e-18
2.01889e-13
-1.11349e-18
-9.10596e-18
2.01878e-13
1.50258e-18
9.00741e-18
2.01888e-13
-1.29315e-18
-8.74859e-18
2.01877e-13
-7.1042e-20
7.30697e-18
2.01888e-13
-3.85358e-19
-8.20085e-18
2.01878e-13
1.02595e-18
8.04391e-18
2.01889e-13
-2.5427e-18
-7.62539e-18
2.01877e-13
2.2307e-18
7.79159e-18
2.01887e-13
-8.28913e-19
-7.63924e-18
2.0188e-13
8.55098e-19
6.37994e-18
2.01886e-13
6.57968e-19
-4.27903e-18
2.01882e-13
-1.52258e-18
2.61158e-18
2.01884e-13
1.83689e-18
-1.08155e-18
2.01882e-13
-1.0474e-18
1.4577e-18
2.01884e-13
4.1259e-19
-1.38644e-18
1.65372e-18
2.30207e-19
2.50059e-13
3.37893e-13
6.81219e-13
2.29941e-13
1.28374e-14
2.26056e-14
2.4298e-13
-8.26479e-15
-1.46892e-14
2.34164e-13
5.57716e-15
9.96499e-15
2.40259e-13
-3.83766e-15
-6.89099e-15
2.3601e-13
2.64385e-15
4.79725e-15
2.39004e-13
-1.85376e-15
-3.37709e-15
2.36863e-13
1.33375e-15
2.40692e-15
2.38379e-13
-9.67976e-16
-1.69533e-15
2.37364e-13
7.27602e-16
1.16257e-15
2.38005e-13
-4.97657e-16
-7.3602e-16
2.37651e-13
3.40073e-16
4.31242e-16
2.37822e-13
-2.13912e-16
-2.26616e-16
2.37758e-13
1.10172e-16
9.5347e-17
2.37769e-13
-6.06368e-17
-3.00878e-17
2.37778e-13
1.92258e-17
-2.12965e-18
2.3776e-13
-8.7915e-18
1.04462e-17
2.37774e-13
-1.01279e-18
-1.60022e-17
2.37756e-13
1.3446e-18
1.55516e-17
2.37773e-13
-2.66625e-18
-1.61806e-17
2.37754e-13
2.65503e-18
1.70243e-17
2.37772e-13
-1.70866e-18
-1.75429e-17
2.37752e-13
1.35894e-18
1.61765e-17
2.3777e-13
-2.73982e-19
-1.58512e-17
2.37751e-13
7.61268e-19
1.59382e-17
2.3777e-13
-1.04804e-18
-1.53957e-17
2.37754e-13
2.25408e-18
1.66554e-17
2.3777e-13
-2.31061e-18
-1.40139e-17
2.37755e-13
2.42239e-18
1.32447e-17
2.37767e-13
-1.286e-18
-1.14671e-17
2.37756e-13
-1.00725e-18
7.60232e-18
2.37766e-13
1.81021e-18
-6.29865e-18
2.37757e-13
-1.20781e-18
7.82808e-18
2.37767e-13
1.87186e-19
-8.24318e-18
2.37756e-13
-5.78579e-19
7.91321e-18
2.37767e-13
2.28721e-19
-8.72761e-18
2.37756e-13
2.87559e-19
8.62594e-18
2.37766e-13
-1.85506e-20
-8.34164e-18
2.37755e-13
-1.33893e-18
6.69075e-18
2.37766e-13
1.13761e-18
-7.81908e-18
2.37756e-13
-5.10469e-19
7.83726e-18
2.37766e-13
-1.31483e-18
-7.52453e-18
2.37755e-13
1.05532e-18
7.53107e-18
2.37765e-13
7.4107e-19
-7.4922e-18
2.37757e-13
-4.09391e-19
6.35677e-18
2.37763e-13
1.84713e-18
-4.16888e-18
2.37759e-13
-2.42891e-18
2.31359e-18
2.37762e-13
2.5977e-18
-7.54236e-19
2.37759e-13
-1.60622e-18
1.24657e-18
2.37762e-13
8.01501e-19
-1.26268e-18
1.35316e-18
2.28796e-19
2.73682e-13
2.34402e-13
6.80319e-13
2.5468e-13
9.08197e-15
2.2758e-14
2.67081e-13
-5.83959e-15
-1.4826e-14
2.587e-13
3.92568e-15
1.00327e-14
2.64497e-13
-2.69984e-15
-6.93485e-15
2.60453e-13
1.85691e-15
4.82346e-15
2.63304e-13
-1.30146e-15
-3.39563e-15
2.61266e-13
9.37906e-16
2.42268e-15
2.62706e-13
-6.82688e-16
-1.71064e-15
2.6175e-13
5.19483e-16
1.17987e-15
2.62348e-13
-3.57169e-16
-7.4985e-16
2.62023e-13
2.49002e-16
4.42357e-16
2.62176e-13
-1.60219e-16
-2.34022e-16
2.62122e-13
8.41825e-17
9.87287e-17
2.62128e-13
-4.78925e-17
-3.2323e-17
2.62138e-13
1.52136e-17
-1.64084e-18
2.6212e-13
-7.25445e-18
9.904e-18
2.62134e-13
-1.71014e-19
-1.57963e-17
2.62115e-13
-3.09708e-19
1.57432e-17
2.62133e-13
-1.03481e-18
-1.61642e-17
2.62114e-13
1.23567e-18
1.68355e-17
2.62131e-13
-2.03693e-19
-1.71047e-17
2.62111e-13
-6.29774e-19
1.60442e-17
2.6213e-13
1.49998e-18
-1.54275e-17
2.62111e-13
-1.11245e-18
1.56666e-17
2.6213e-13
9.87491e-19
-1.53331e-17
2.62113e-13
2.62133e-19
1.64616e-17
2.6213e-13
-6.91064e-19
-1.40966e-17
2.62115e-13
1.19845e-18
1.31434e-17
2.62127e-13
-1.77706e-19
-1.13317e-17
2.62115e-13
-1.97836e-18
7.60466e-18
2.62125e-13
2.59463e-18
-6.24741e-18
2.62117e-13
-1.74991e-18
7.61589e-18
2.62127e-13
6.3159e-19
-8.02653e-18
2.62116e-13
-1.29003e-18
7.92616e-18
2.62126e-13
1.35426e-18
-8.72755e-18
2.62116e-13
-7.28007e-19
8.583e-18
2.62125e-13
9.02406e-19
-8.12658e-18
2.62115e-13
-2.13744e-18
6.45315e-18
2.62125e-13
2.18506e-18
-7.53547e-18
2.62116e-13
-1.70855e-18
7.66423e-18
2.62126e-13
-1.43414e-19
-7.43868e-18
2.62115e-13
9.29906e-20
7.21369e-18
2.62125e-13
1.96131e-18
-7.23055e-18
2.62117e-13
-1.45181e-18
6.27367e-18
2.62123e-13
2.6956e-18
-4.1342e-18
2.62119e-13
-2.92228e-18
2.20074e-18
2.62121e-13
3.04442e-18
-7.50441e-19
2.62119e-13
-2.02822e-18
1.29558e-18
2.62122e-13
1.22291e-18
-1.40911e-18
6.04836e-19
4.56143e-19
2.88412e-13
1.19612e-13
6.76889e-13
2.70147e-13
4.6779e-15
2.26695e-14
2.82147e-13
-3.00875e-15
-1.48309e-14
2.74031e-13
2.01822e-15
1.00231e-14
2.79647e-13
-1.38768e-15
-6.92707e-15
2.75727e-13
9.52745e-16
4.81569e-15
2.7849e-13
-6.67586e-16
-3.38931e-15
2.76518e-13
4.8169e-16
2.41826e-15
2.77908e-13
-3.5071e-16
-1.70859e-15
2.7699e-13
2.72247e-16
1.18088e-15
2.77562e-13
-1.87799e-16
-7.51773e-16
2.77255e-13
1.36482e-16
4.44653e-16
2.77397e-13
-9.2071e-17
-2.35842e-16
2.77348e-13
5.05566e-17
9.97149e-17
2.77351e-13
-3.05284e-17
-3.30109e-17
2.77363e-13
9.53865e-18
-1.29435e-18
2.77343e-13
-4.79203e-18
9.58665e-18
2.77358e-13
4.01076e-19
-1.57406e-17
2.77339e-13
-1.77278e-18
1.57471e-17
2.77357e-13
4.192e-19
-1.61005e-17
2.77338e-13
1.96704e-20
1.66386e-17
2.77355e-13
9.39406e-19
-1.69544e-17
2.77335e-13
-2.28273e-18
1.59629e-17
2.77354e-13
2.8135e-18
-1.52847e-17
2.77335e-13
-2.63836e-18
1.5558e-17
2.77354e-13
2.7487e-18
-1.52884e-17
2.77337e-13
-1.52827e-18
1.63992e-17
2.77354e-13
7.77336e-19
-1.39945e-17
2.77339e-13
9.05722e-20
1.29903e-17
2.77351e-13
7.4851e-19
-1.12977e-17
2.77339e-13
-2.63594e-18
7.62104e-18
2.77349e-13
3.00616e-18
-6.26586e-18
2.77341e-13
-1.94337e-18
7.60374e-18
2.7735e-13
8.09013e-19
-7.89052e-18
2.77339e-13
-1.72699e-18
7.84032e-18
2.7735e-13
2.25608e-18
-8.75148e-18
2.7734e-13
-1.54704e-18
8.55829e-18
2.77349e-13
1.58727e-18
-8.05768e-18
2.77339e-13
-2.57171e-18
6.3394e-18
2.77349e-13
2.88675e-18
-7.43206e-18
2.7734e-13
-2.63652e-18
7.61754e-18
2.7735e-13
9.38347e-19
-7.36962e-18
2.77339e-13
-7.09937e-19
6.97596e-18
2.77348e-13
2.88663e-18
-7.09089e-18
2.77341e-13
-2.30567e-18
6.26591e-18
2.77347e-13
3.26052e-18
-4.19362e-18
2.77343e-13
-3.12072e-18
2.21993e-18
2.77345e-13
3.23244e-18
-8.44961e-19
2.77343e-13
-2.32451e-18
1.4026e-18
2.77345e-13
1.60117e-18
-1.48105e-18
-3.28247e-19
5.4513e-19
2.95501e-13
8.76583e-20
6.74621e-13
2.77602e-13
-2.71988e-19
2.25769e-14
2.89409e-13
2.36097e-19
-1.48151e-14
2.81419e-13
5.95235e-20
1.00079e-14
2.86948e-13
4.20647e-19
-6.9166e-15
2.83088e-13
-3.19515e-18
4.80814e-15
2.85809e-13
2.50871e-18
-3.38368e-15
2.83868e-13
-1.67601e-18
2.41402e-15
2.85235e-13
2.09099e-18
-1.70549e-15
2.84335e-13
8.04628e-18
1.179e-15
2.84895e-13
-5.98563e-18
-7.50795e-16
2.84596e-13
1.47323e-17
4.44131e-16
2.84733e-13
-1.75307e-17
-2.35606e-16
2.84686e-13
1.34068e-17
9.9697e-17
2.84687e-13
-1.09479e-17
-3.3011e-17
2.847e-13
2.98132e-18
-1.09323e-18
2.8468e-13
-1.87527e-18
9.39287e-18
2.84694e-13
7.83117e-19
-1.57091e-17
2.84676e-13
-2.95159e-18
1.56598e-17
2.84693e-13
1.66366e-18
-1.60198e-17
2.84675e-13
-1.04171e-18
1.64843e-17
2.84692e-13
1.87993e-18
-1.69462e-17
2.84672e-13
-3.65698e-18
1.59531e-17
2.84691e-13
3.8355e-18
-1.53054e-17
2.84672e-13
-3.90619e-18
1.55481e-17
2.84691e-13
4.23756e-18
-1.5276e-17
2.84674e-13
-3.13362e-18
1.64084e-17
2.84691e-13
2.03498e-18
-1.38616e-17
2.84676e-13
-8.9387e-19
1.28475e-17
2.84688e-13
1.51517e-18
-1.12921e-17
2.84676e-13
-2.99757e-18
7.62512e-18
2.84686e-13
3.09776e-18
-6.28868e-18
2.84678e-13
-1.89269e-18
7.63823e-18
2.84687e-13
8.07646e-19
-7.79148e-18
2.84676e-13
-1.90669e-18
7.73017e-18
2.84687e-13
2.9278e-18
-8.76972e-18
2.84677e-13
-2.18119e-18
8.54562e-18
2.84686e-13
2.10349e-18
-8.05529e-18
2.84676e-13
-2.75248e-18
6.31255e-18
2.84686e-13
3.35051e-18
-7.44176e-18
2.84677e-13
-3.35438e-18
7.65079e-18
2.84687e-13
1.92639e-18
-7.34307e-18
2.84676e-13
-1.42288e-18
6.84846e-18
2.84685e-13
3.58813e-18
-7.06287e-18
2.84678e-13
-2.99918e-18
6.30558e-18
2.84684e-13
3.59333e-18
-4.29172e-18
2.84679e-13
-3.10295e-18
2.28327e-18
2.84682e-13
3.19728e-18
-9.43674e-19
2.8468e-13
-2.47576e-18
1.48554e-18
2.84682e-13
1.87044e-18
-1.4917e-18
-1.26229e-18
5.55631e-19
2.95501e-13
-1.19611e-13
6.74621e-13
2.77602e-13
-4.67838e-15
2.25769e-14
2.89409e-13
3.00918e-15
-1.48152e-14
2.81419e-13
-2.01804e-15
1.0008e-14
2.86948e-13
1.38846e-15
-6.91677e-15
2.83089e-13
-9.59211e-16
4.80856e-15
2.85808e-13
6.72625e-16
-3.38407e-15
2.83868e-13
-4.85123e-16
2.41404e-15
2.85235e-13
3.54954e-16
-1.70519e-15
2.84335e-13
-2.56117e-16
1.17823e-15
2.84895e-13
1.76008e-16
-7.4999e-16
2.84596e-13
-1.07468e-16
4.43141e-16
2.84733e-13
5.7681e-17
-2.34756e-16
2.84686e-13
-2.44253e-17
9.92691e-17
2.84687e-13
9.11152e-18
-3.26056e-17
2.847e-13
-3.71737e-18
-1.21432e-18
2.8468e-13
9.97997e-19
9.43925e-18
2.84694e-13
1.09441e-18
-1.57444e-17
2.84676e-13
-3.9874e-18
1.57522e-17
2.84693e-13
2.83617e-18
-1.61015e-17
2.84675e-13
-2.11401e-18
1.65058e-17
2.84692e-13
2.73095e-18
-1.70303e-17
2.84672e-13
-4.8536e-18
1.60979e-17
2.84691e-13
4.6711e-18
-1.54473e-17
2.84672e-13
-4.99009e-18
1.56405e-17
2.84691e-13
5.51644e-18
-1.53809e-17
2.84674e-13
-4.55629e-18
1.64857e-17
2.84691e-13
3.2195e-18
-1.3919e-17
2.84676e-13
-1.87324e-18
1.28488e-17
2.84688e-13
2.19892e-18
-1.13609e-17
2.84676e-13
-3.20843e-18
7.75717e-18
2.84686e-13
3.02686e-18
-6.43245e-18
2.84678e-13
-1.73184e-18
7.73337e-18
2.84687e-13
7.91839e-19
-7.80384e-18
2.84676e-13
-2.01954e-18
7.79288e-18
2.84687e-13
3.43607e-18
-8.86837e-18
2.84677e-13
-2.70337e-18
8.61762e-18
2.84686e-13
2.50925e-18
-8.10936e-18
2.84676e-13
-2.79882e-18
6.39484e-18
2.84686e-13
3.62767e-18
-7.52168e-18
2.84677e-13
-3.89053e-18
7.7482e-18
2.84687e-13
2.83036e-18
-7.38828e-18
2.84676e-13
-2.07557e-18
6.81258e-18
2.84685e-13
4.07362e-18
-7.10336e-18
2.84678e-13
-3.53509e-18
6.38372e-18
2.84684e-13
3.72761e-18
-4.4252e-18
2.84679e-13
-2.92452e-18
2.37511e-18
2.84682e-13
2.98704e-18
-1.05848e-18
2.8468e-13
-2.48544e-18
1.55822e-18
2.84682e-13
2.03472e-18
-1.52617e-18
-2.12685e-18
5.63686e-19
2.88412e-13
-2.344e-13
6.76888e-13
2.70146e-13
-9.08226e-15
2.26695e-14
2.82147e-13
5.83993e-15
-1.48312e-14
2.74031e-13
-3.92542e-15
1.00238e-14
2.79647e-13
2.70056e-15
-6.92765e-15
2.75727e-13
-1.86369e-15
4.81706e-15
2.78489e-13
1.30663e-15
-3.39057e-15
2.76518e-13
-9.41633e-16
2.41841e-15
2.77908e-13
6.87119e-16
-1.7078e-15
2.7699e-13
-5.03323e-16
1.17865e-15
2.77562e-13
3.45934e-16
-7.49403e-16
2.77255e-13
-2.21373e-16
4.41738e-16
2.77397e-13
1.27848e-16
-2.33349e-16
2.77348e-13
-6.00737e-17
9.84645e-17
2.77351e-13
2.7918e-17
-3.18441e-17
2.77363e-13
-9.85239e-18
-1.6098e-18
2.77343e-13
3.38888e-18
9.69795e-18
2.77357e-13
1.46185e-18
-1.58351e-17
2.77339e-13
-4.99355e-18
1.59831e-17
2.77356e-13
4.05245e-18
-1.63167e-17
2.77338e-13
-3.3241e-18
1.66828e-17
2.77355e-13
3.61203e-18
-1.72024e-17
2.77335e-13
-5.97259e-18
1.63805e-17
2.77354e-13
5.44185e-18
-1.57099e-17
2.77335e-13
-5.97631e-18
1.58315e-17
2.77354e-13
6.65809e-18
-1.55909e-17
2.77337e-13
-5.81876e-18
1.66301e-17
2.77354e-13
4.43758e-18
-1.4141e-17
2.77339e-13
-2.93795e-18
1.29815e-17
2.77351e-13
2.87658e-18
-1.14956e-17
2.77339e-13
-3.4073e-18
7.99613e-18
2.77349e-13
2.94976e-18
-6.67695e-18
2.77341e-13
-1.6016e-18
7.87936e-18
2.7735e-13
9.05836e-19
-7.91843e-18
2.77339e-13
-2.22512e-18
8.0017e-18
2.7735e-13
3.85288e-18
-9.03531e-18
2.7734e-13
-3.18425e-18
8.76578e-18
2.77349e-13
2.86832e-18
-8.21951e-18
2.77339e-13
-2.84299e-18
6.58746e-18
2.77349e-13
3.80151e-18
-7.67973e-18
2.7734e-13
-4.29225e-18
7.90871e-18
2.7735e-13
3.64882e-18
-7.49929e-18
2.77339e-13
-2.7091e-18
6.89207e-18
2.77348e-13
4.39612e-18
-7.23381e-18
2.77341e-13
-3.92882e-18
6.49744e-18
2.77347e-13
3.72037e-18
-4.58875e-18
2.77343e-13
-2.6569e-18
2.49366e-18
2.77345e-13
2.66999e-18
-1.18427e-18
2.77343e-13
-2.37537e-18
1.61929e-18
2.77345e-13
2.10107e-18
-1.57951e-18
-2.84643e-18
5.36628e-19
2.73682e-13
-3.37892e-13
6.8032e-13
2.5468e-13
-1.28374e-14
2.27582e-14
2.67081e-13
8.26506e-15
-1.48265e-14
2.58699e-13
-5.57716e-15
1.0034e-14
2.64497e-13
3.83853e-15
-6.93603e-15
2.60453e-13
-2.65117e-15
4.82583e-15
2.63303e-13
1.85901e-15
-3.39768e-15
2.61267e-13
-1.3378e-15
2.42294e-15
2.62705e-13
9.72866e-16
-1.70963e-15
2.6175e-13
-7.11499e-16
1.17623e-15
2.62348e-13
4.87592e-16
-7.46151e-16
2.62023e-13
-3.14964e-16
4.3774e-16
2.62177e-13
1.85017e-16
-2.30033e-16
2.62122e-13
-8.95251e-17
9.6802e-17
2.62128e-13
4.29733e-17
-3.03689e-17
2.62138e-13
-1.47462e-17
-2.02739e-18
2.62119e-13
4.94011e-18
9.97449e-18
2.62134e-13
2.00765e-18
-1.59697e-17
2.62115e-13
-5.90177e-18
1.61388e-17
2.62133e-13
5.25137e-18
-1.64794e-17
2.62114e-13
-4.61862e-18
1.68071e-17
2.62131e-13
4.71682e-18
-1.7535e-17
2.62111e-13
-7.06547e-18
1.67244e-17
2.6213e-13
6.33628e-18
-1.61434e-17
2.62111e-13
-6.97081e-18
1.61312e-17
2.6213e-13
7.68117e-18
-1.5842e-17
2.62113e-13
-6.99705e-18
1.6883e-17
2.6213e-13
5.57909e-18
-1.42836e-17
2.62115e-13
-4.0148e-18
1.30627e-17
2.62127e-13
3.59758e-18
-1.16683e-17
2.62115e-13
-3.61978e-18
8.2227e-18
2.62125e-13
2.93509e-18
-6.93217e-18
2.62117e-13
-1.6584e-18
8.10285e-18
2.62126e-13
1.19241e-18
-8.02495e-18
2.62116e-13
-2.48477e-18
8.13305e-18
2.62126e-13
4.20999e-18
-9.21667e-18
2.62116e-13
-3.64658e-18
8.9263e-18
2.62125e-13
3.26902e-18
-8.40299e-18
2.62115e-13
-2.97739e-18
6.84911e-18
2.62125e-13
3.97179e-18
-7.93281e-18
2.62116e-13
-4.64454e-18
8.15908e-18
2.62126e-13
4.3837e-18
-7.6583e-18
2.62115e-13
-3.33072e-18
7.03535e-18
2.62125e-13
4.60752e-18
-7.44645e-18
2.62117e-13
-4.22928e-18
6.66583e-18
2.62123e-13
3.65653e-18
-4.80518e-18
2.62119e-13
-2.40545e-18
2.66943e-18
2.62121e-13
2.31896e-18
-1.33428e-18
2.62119e-13
-2.17425e-18
1.68379e-18
2.62121e-13
2.0288e-18
-1.58645e-18
-3.24061e-18
3.56881e-19
2.50059e-13
-4.1866e-13
6.8122e-13
2.2994e-13
-1.53247e-14
2.26061e-14
2.4298e-13
9.91572e-15
-1.469e-14
2.34163e-13
-6.72706e-15
9.96696e-15
2.40259e-13
4.63477e-15
-6.89276e-15
2.3601e-13
-3.20739e-15
4.79976e-15
2.39003e-13
2.24931e-15
-3.37932e-15
2.36865e-13
-1.61406e-15
2.40668e-15
2.38378e-13
1.16645e-15
-1.69387e-15
2.37365e-13
-8.4323e-16
1.15795e-15
2.38005e-13
5.73495e-16
-7.30996e-16
2.3765e-13
-3.68327e-16
4.25101e-16
2.37823e-13
2.16205e-16
-2.21233e-16
2.37758e-13
-1.0593e-16
9.25081e-17
2.37769e-13
5.01118e-17
-2.71931e-17
2.37777e-13
-1.68628e-17
-2.98652e-18
2.3776e-13
4.80915e-18
1.0663e-17
2.37774e-13
3.14151e-18
-1.641e-17
2.37756e-13
-6.84147e-18
1.64355e-17
2.37773e-13
6.54826e-18
-1.68264e-17
2.37754e-13
-6.09726e-18
1.70781e-17
2.37771e-13
6.36572e-18
-1.81923e-17
2.37752e-13
-8.27867e-18
1.72668e-17
2.3777e-13
7.6374e-18
-1.69136e-17
2.37751e-13
-8.14042e-18
1.66453e-17
2.3777e-13
8.64943e-18
-1.6216e-17
2.37753e-13
-8.23715e-18
1.73244e-17
2.3777e-13
6.61831e-18
-1.44705e-17
2.37755e-13
-5.14919e-18
1.32595e-17
2.37767e-13
4.54508e-18
-1.20521e-17
2.37756e-13
-4.02111e-18
8.66034e-18
2.37765e-13
3.22059e-18
-7.44685e-18
2.37757e-13
-2.23065e-18
8.61959e-18
2.37767e-13
1.8691e-18
-8.35388e-18
2.37756e-13
-2.9087e-18
8.3878e-18
2.37767e-13
4.64753e-18
-9.55715e-18
2.37756e-13
-4.19595e-18
9.21157e-18
2.37766e-13
3.87423e-18
-8.78276e-18
2.37755e-13
-3.4015e-18
7.33736e-18
2.37765e-13
4.33642e-18
-8.40571e-18
2.37756e-13
-5.06894e-18
8.56256e-18
2.37766e-13
5.0377e-18
-7.92097e-18
2.37755e-13
-4.00778e-18
7.3594e-18
2.37765e-13
4.84025e-18
-7.83136e-18
2.37757e-13
-4.48228e-18
6.90058e-18
2.37763e-13
3.63852e-18
-5.10087e-18
2.37759e-13
-2.3047e-18
2.96745e-18
2.37762e-13
2.03832e-18
-1.58007e-18
2.37759e-13
-1.94224e-18
1.81089e-18
2.37762e-13
1.81354e-18
-1.5822e-18
-3.13403e-18
-9.81535e-20
2.15147e-13
-4.53308e-13
6.70011e-13
1.93516e-13
-1.54043e-14
2.17117e-14
2.07492e-13
1.00724e-14
-1.41329e-14
1.98017e-13
-6.87572e-15
9.62375e-15
2.04566e-13
4.74384e-15
-6.65762e-15
2.00007e-13
-3.28782e-15
4.6341e-15
2.03215e-13
2.30348e-15
-3.25829e-15
2.00925e-13
-1.64105e-15
2.30933e-15
2.02548e-13
1.17226e-15
-1.61637e-15
2.0145e-13
-8.2905e-16
1.09605e-15
2.02151e-13
5.55202e-16
-6.87715e-16
2.01752e-13
-3.492e-16
3.96249e-16
2.01954e-13
2.01137e-16
-2.03814e-16
2.01872e-13
-9.8246e-17
8.50476e-17
2.01893e-13
4.3473e-17
-2.2671e-17
2.01897e-13
-1.2936e-17
-4.88142e-18
2.01882e-13
1.08733e-18
1.22492e-17
2.01896e-13
5.20354e-18
-1.69174e-17
2.01877e-13
-8.49038e-18
1.7091e-17
2.01895e-13
8.52731e-18
-1.7594e-17
2.01876e-13
-8.38498e-18
1.78396e-17
2.01893e-13
8.46211e-18
-1.86501e-17
2.01874e-13
-9.86505e-18
1.77971e-17
2.01892e-13
9.40614e-18
-1.74706e-17
2.01873e-13
-9.50133e-18
1.70414e-17
2.01892e-13
9.66326e-18
-1.6546e-17
2.01875e-13
-9.28049e-18
1.73586e-17
2.01892e-13
8.11599e-18
-1.50846e-17
2.01877e-13
-6.8209e-18
1.38468e-17
2.01889e-13
5.868e-18
-1.25117e-17
2.01878e-13
-5.24832e-18
9.54863e-18
2.01887e-13
4.44482e-18
-8.38673e-18
2.01879e-13
-3.61302e-18
9.34977e-18
2.01889e-13
3.5546e-18
-9.19614e-18
2.01878e-13
-4.35902e-18
9.28408e-18
2.01889e-13
5.43347e-18
-9.94804e-18
2.01878e-13
-5.11332e-18
9.63783e-18
2.01888e-13
4.79757e-18
-9.1457e-18
2.01877e-13
-4.49953e-18
8.12764e-18
2.01888e-13
5.02549e-18
-8.89018e-18
2.01878e-13
-5.52034e-18
8.76549e-18
2.01888e-13
5.60822e-18
-8.06447e-18
2.01877e-13
-4.99356e-18
7.86447e-18
2.01887e-13
5.23231e-18
-8.23848e-18
2.0188e-13
-4.61205e-18
6.89637e-18
2.01886e-13
3.67338e-18
-5.24419e-18
2.01882e-13
-2.46645e-18
3.22376e-18
2.01884e-13
1.99756e-18
-1.89727e-18
2.01882e-13
-1.78775e-18
1.96623e-18
2.01884e-13
1.67412e-18
-1.67627e-18
-2.48228e-18
2.0801e-20
1.64162e-13
-3.83704e-13
6.16744e-13
1.40574e-13
-1.07329e-14
1.89172e-14
1.55921e-13
7.12361e-15
-1.23979e-14
1.45459e-13
-4.89079e-15
8.4764e-15
1.52687e-13
3.38023e-15
-5.86345e-15
1.47663e-13
-2.34897e-15
4.07975e-15
1.51191e-13
1.64632e-15
-2.8669e-15
1.4868e-13
-1.16584e-15
2.02776e-15
1.50459e-13
8.22543e-16
-1.41712e-15
1.49242e-13
-5.60085e-16
9.60219e-16
1.50031e-13
3.66267e-16
-6.04436e-16
1.49566e-13
-2.17978e-16
3.49701e-16
1.49814e-13
1.17322e-16
-1.80078e-16
1.49703e-13
-5.476e-17
7.67318e-17
1.49741e-13
1.93563e-17
-2.14682e-17
1.49738e-13
-3.25601e-18
-3.06509e-18
1.49726e-13
-4.8735e-18
1.0624e-17
1.49739e-13
5.9887e-18
-1.49328e-17
1.49721e-13
-8.09354e-18
1.47934e-17
1.49739e-13
8.18698e-18
-1.54772e-17
1.49721e-13
-8.63543e-18
1.57303e-17
1.49738e-13
8.30081e-18
-1.65315e-17
1.49718e-13
-8.91791e-18
1.5444e-17
1.49737e-13
8.75327e-18
-1.53066e-17
1.49718e-13
-8.85413e-18
1.52679e-17
1.49737e-13
8.67536e-18
-1.48701e-17
1.4972e-13
-7.93941e-18
1.52652e-17
1.49736e-13
7.64117e-18
-1.32906e-17
1.49722e-13
-6.83617e-18
1.22588e-17
1.49733e-13
5.63869e-18
-1.11822e-17
1.49722e-13
-5.19303e-18
8.49303e-18
1.49732e-13
4.54457e-18
-7.496e-18
1.49724e-13
-4.08152e-18
8.49179e-18
1.49733e-13
4.39871e-18
-8.25769e-18
1.49722e-13
-4.84643e-18
8.22762e-18
1.49733e-13
4.92994e-18
-8.72928e-18
1.49723e-13
-4.76116e-18
8.46897e-18
1.49732e-13
4.48926e-18
-8.09663e-18
1.49722e-13
-4.56963e-18
7.27987e-18
1.49732e-13
4.57035e-18
-7.93941e-18
1.49722e-13
-4.54725e-18
7.63955e-18
1.49733e-13
4.7461e-18
-6.95793e-18
1.49722e-13
-4.73837e-18
6.82239e-18
1.49732e-13
4.33243e-18
-7.15954e-18
1.49724e-13
-3.66528e-18
5.98481e-18
1.4973e-13
2.85615e-18
-4.52862e-18
1.49726e-13
-2.10686e-18
2.81551e-18
1.49729e-13
1.48417e-18
-1.68253e-18
1.49726e-13
-1.30704e-18
1.77043e-18
1.49729e-13
1.19576e-18
-1.37106e-18
-1.13942e-18
-5.80108e-19
8.31015e-14
3.83704e-13
6.16358e-14
1.07328e-14
7.58834e-14
-7.12392e-15
6.6103e-14
4.88965e-15
7.28614e-14
-3.37811e-15
6.81652e-14
2.34617e-15
7.14577e-14
-1.64545e-15
6.91253e-14
1.16509e-15
7.07702e-14
-8.19918e-16
6.96441e-14
5.68267e-16
7.03759e-14
-3.66409e-16
6.99377e-14
2.23167e-16
7.0176e-14
-1.23975e-16
7.00654e-14
5.77221e-17
7.01067e-14
-2.33449e-17
7.00999e-14
4.12179e-18
7.00918e-14
1.94633e-18
7.01036e-14
-6.10148e-18
7.00879e-14
7.07982e-18
7.01039e-14
-7.4708e-18
7.00873e-14
7.417e-18
7.01034e-14
-7.64225e-18
7.00857e-14
8.04109e-18
7.01028e-14
-7.70591e-18
7.00856e-14
7.6527e-18
7.01025e-14
-7.59445e-18
7.0087e-14
7.4763e-18
7.01018e-14
-6.66098e-18
7.00887e-14
5.88462e-18
7.00997e-14
-5.30871e-18
7.00895e-14
4.46721e-18
7.00985e-14
-3.94887e-18
7.00906e-14
3.74754e-18
7.0099e-14
-3.69385e-18
7.00897e-14
3.9282e-18
7.00993e-14
-4.33357e-18
7.009e-14
4.23661e-18
7.00987e-14
-3.96258e-18
7.00896e-14
3.91495e-18
7.00987e-14
-4.1604e-18
7.00899e-14
4.03755e-18
7.00991e-14
-3.98536e-18
7.00897e-14
3.95249e-18
7.00983e-14
-3.92349e-18
7.00914e-14
3.08694e-18
7.00967e-14
-2.36456e-18
7.0093e-14
1.43598e-18
7.00956e-14
-9.76978e-19
7.00933e-14
8.7792e-19
7.00955e-14
-8.38749e-19
1.08522e-18
1.64162e-13
6.16744e-13
4.53308e-13
1.40574e-13
1.89169e-14
1.54041e-14
1.55921e-13
-1.23978e-14
-1.00717e-14
1.4546e-13
8.47519e-15
6.87489e-15
1.52687e-13
-5.86227e-15
-4.74236e-15
1.47663e-13
4.07872e-15
3.28264e-15
1.51191e-13
-2.86477e-15
-2.29979e-15
1.48679e-13
2.02789e-15
1.6382e-15
1.5046e-13
-1.41966e-15
-1.16883e-15
1.49242e-13
9.61052e-16
8.41162e-16
1.50031e-13
-6.1002e-16
-5.60472e-16
1.49566e-13
3.55696e-16
3.62738e-16
1.49814e-13
-1.85501e-16
-2.16932e-16
1.49704e-13
8.04917e-17
1.0889e-16
1.49741e-13
-2.48517e-17
-5.16246e-17
1.49738e-13
-1.73647e-18
1.5136e-17
1.49727e-13
1.17534e-17
-4.92904e-18
1.49739e-13
-1.46462e-17
-4.80496e-18
1.49722e-13
1.4047e-17
6.10279e-18
1.49739e-13
-1.48526e-17
-7.05733e-18
1.49721e-13
1.63089e-17
6.51514e-18
1.49738e-13
-1.60429e-17
-6.88913e-18
1.49718e-13
1.40917e-17
7.087e-18
1.49737e-13
-1.40773e-17
-6.53896e-18
1.49718e-13
1.47737e-17
6.20458e-18
1.49737e-13
-1.4299e-17
-6.17831e-18
1.4972e-13
1.44615e-17
7.37599e-18
1.49736e-13
-1.30659e-17
-6.07642e-18
1.49722e-13
1.26743e-17
5.44292e-18
1.49733e-13
-1.06725e-17
-4.71065e-18
1.49722e-13
7.24307e-18
2.96946e-18
1.49732e-13
-6.15781e-18
-2.17853e-18
1.49724e-13
7.67588e-18
2.31183e-18
1.49733e-13
-8.43513e-18
-2.46104e-18
1.49723e-13
7.93065e-18
2.47975e-18
1.49733e-13
-7.69804e-18
-3.46528e-18
1.49723e-13
7.78227e-18
3.51248e-18
1.49732e-13
-7.62223e-18
-3.27856e-18
1.49722e-13
6.24e-18
2.76398e-18
1.49732e-13
-6.69698e-18
-3.42494e-18
1.49722e-13
6.59482e-18
3.5373e-18
1.49733e-13
-6.5422e-18
-3.88504e-18
1.49722e-13
6.49654e-18
4.1723e-18
1.49732e-13
-5.61539e-18
-4.16432e-18
1.49724e-13
5.24125e-18
2.68662e-18
1.4973e-13
-3.16346e-18
-1.57621e-18
1.49726e-13
2.03852e-18
3.72457e-19
1.49729e-13
-5.92454e-19
-3.58843e-20
1.49726e-13
1.13128e-18
1.87107e-19
1.49729e-13
-1.01827e-18
-4.30438e-19
-2.11181e-20
1.65451e-18
3.7036e-13
8.5682e-13
8.5682e-13
3.4667e-13
3.07622e-14
3.07623e-14
3.61369e-13
-1.97465e-14
-1.9746e-14
3.51552e-13
1.33832e-14
1.33832e-14
3.58288e-13
-9.22922e-15
-9.22984e-15
3.5367e-13
6.37593e-15
6.37646e-15
3.56872e-13
-4.45407e-15
-4.45454e-15
3.54582e-13
3.15827e-15
3.15761e-15
3.56285e-13
-2.25371e-15
-2.25176e-15
3.54988e-13
1.63229e-15
1.63104e-15
3.55962e-13
-1.11526e-15
-1.11022e-15
3.55265e-13
7.44931e-16
7.39691e-16
3.55728e-13
-4.60275e-16
-4.53686e-16
3.55455e-13
2.45622e-16
2.42795e-16
3.55611e-13
-1.25909e-16
-1.2062e-16
3.55536e-13
4.42126e-17
4.18756e-17
3.55567e-13
-1.28742e-17
-1.4193e-17
3.5555e-13
-7.03291e-18
-7.50317e-18
3.55552e-13
6.42547e-18
7.98661e-18
3.55551e-13
-9.68021e-18
-1.07805e-17
3.55552e-13
1.14984e-17
1.0808e-17
3.55546e-13
-1.04176e-17
-1.11158e-17
3.55542e-13
6.9687e-18
8.77326e-18
3.55543e-13
-6.57424e-18
-7.76086e-18
3.55538e-13
9.59158e-18
9.85381e-18
3.55545e-13
-9.67349e-18
-1.01243e-17
3.55546e-13
1.02035e-17
1.15339e-17
3.55549e-13
-8.90469e-18
-9.38128e-18
3.55549e-13
9.54705e-18
8.95178e-18
3.55546e-13
-6.9761e-18
-7.54047e-18
3.55543e-13
1.03667e-18
2.54888e-18
3.55545e-13
5.2111e-19
-8.09635e-19
3.5555e-13
2.0129e-18
3.25107e-18
3.55546e-13
-3.85063e-18
-3.51551e-18
3.55547e-13
1.9796e-18
2.44281e-18
3.55547e-13
-2.03232e-18
-3.54136e-18
3.55547e-13
3.36411e-18
4.52792e-18
3.55545e-13
-3.60784e-18
-4.15437e-18
3.55539e-13
2.37391e-18
2.89699e-18
3.55544e-13
-3.14602e-18
-4.14635e-18
3.55542e-13
2.61469e-18
3.99713e-18
3.55548e-13
-4.29211e-18
-4.52834e-18
3.55539e-13
5.82374e-18
4.67987e-18
3.55545e-13
-3.23468e-18
-4.64975e-18
3.55544e-13
1.50052e-18
2.87808e-18
3.55545e-13
1.95242e-18
-5.6108e-19
3.55545e-13
-2.77063e-18
-1.26303e-18
3.55546e-13
3.72646e-18
1.51069e-18
3.55546e-13
-1.96285e-18
-6.32464e-19
3.55547e-13
1.14022e-18
2.69274e-19
3.2628e-18
4.36486e-18
5.12309e-13
8.62617e-13
1.00241e-12
4.94165e-13
3.30612e-14
3.75575e-14
5.05017e-13
-2.0888e-14
-2.38418e-14
4.97931e-13
1.40415e-14
1.60491e-14
5.02789e-13
-9.67446e-15
-1.10668e-14
4.99457e-13
6.67071e-15
7.64614e-15
5.01773e-13
-4.65645e-15
-5.34713e-15
5.00097e-13