/*--------------------------------*- C++ -*----------------------------------*\
  =========                 |
  \\      /  F ield         | OpenFOAM: The Open Source CFD Toolbox
   \\    /   O peration     | Website:  https://openfoam.org
    \\  /    A nd           | Version:  13
     \\/     M anipulation  |
\*---------------------------------------------------------------------------*/
FoamFile
{
    format      ascii;
    class       volVectorField;
    location    "28";
    object      U;
}
// * * * * * * * * * * * * * * * * * * * * * * * * * * * * * * * * * * * * * //

dimensions      [0 1 -1 0 0 0 0];

internalField   nonuniform List<vector> 
9996
(
(0.00120199 7.81725e-05 7.81725e-05)
(0.00152362 2.29213e-06 2.29213e-06)
(0.00126859 -1.56351e-06 -1.56346e-06)
(0.00144648 1.07771e-06 1.07775e-06)
(0.00132394 -7.44911e-07 -7.44944e-07)
(0.00140821 5.16502e-07 5.16511e-07)
(0.00135017 -3.61099e-07 -3.60969e-07)
(0.00139047 2.53684e-07 2.53547e-07)
(0.0013618 -1.77001e-07 -1.77145e-07)
(0.00138269 1.22294e-07 1.22237e-07)
(0.0013675 -7.92433e-08 -7.93706e-08)
(0.00137824 4.90509e-08 4.90318e-08)
(0.00137114 -2.77453e-08 -2.78504e-08)
(0.00137549 1.34973e-08 1.36931e-08)
(0.00137312 -5.8241e-09 -5.64631e-09)
(0.00137428 1.14053e-09 1.11759e-09)
(0.00137379 4.20893e-10 4.24699e-10)
(0.00137394 -1.35895e-09 -1.35162e-09)
(0.00137387 1.63026e-09 1.66701e-09)
(0.00137388 -1.76904e-09 -1.78965e-09)
(0.00137388 1.77005e-09 1.75846e-09)
(0.00137386 -1.73644e-09 -1.74245e-09)
(0.00137386 1.80273e-09 1.81246e-09)
(0.00137384 -1.71968e-09 -1.7508e-09)
(0.00137386 1.63916e-09 1.61737e-09)
(0.00137383 -1.61135e-09 -1.58072e-09)
(0.00137387 1.58879e-09 1.61096e-09)
(0.00137384 -1.55376e-09 -1.56129e-09)
(0.00137389 1.3894e-09 1.39604e-09)
(0.00137383 -1.22986e-09 -1.23121e-09)
(0.00137387 1.093e-09 1.10222e-09)
(0.00137383 -9.85317e-10 -9.9648e-10)
(0.00137386 9.10189e-10 9.12816e-10)
(0.00137386 -9.39404e-10 -9.43076e-10)
(0.00137386 9.89774e-10 1.00306e-09)
(0.00137384 -9.74117e-10 -9.92424e-10)
(0.00137387 9.76564e-10 9.82769e-10)
(0.00137384 -9.15722e-10 -9.25855e-10)
(0.00137386 8.98148e-10 9.41586e-10)
(0.00137383 -8.76644e-10 -9.35916e-10)
(0.00137386 8.79204e-10 9.23467e-10)
(0.00137384 -9.29315e-10 -9.35759e-10)
(0.00137386 9.28595e-10 9.88486e-10)
(0.00137383 -8.06428e-10 -9.24529e-10)
(0.00137387 6.51386e-10 6.76903e-10)
(0.00137383 -4.80553e-10 -5.14978e-10)
(0.00137388 3.24357e-10 3.50632e-10)
(0.00137384 -2.31197e-10 -2.62071e-10)
(0.00137386 1.80466e-10 1.99279e-10)
(0.00137384 -2.12918e-10 -2.21614e-10)
(0.00137385 2.3172e-10 2.20748e-10)
(0.00254958 0.000159629 0.000126953)
(0.00324849 4.91021e-06 4.17966e-06)
(0.00271274 -3.22347e-06 -2.83312e-06)
(0.00308787 2.20653e-06 1.95237e-06)
(0.00282915 -1.52339e-06 -1.34923e-06)
(0.00300748 1.05604e-06 9.27969e-07)
(0.00288426 -7.39977e-07 -6.41918e-07)
(0.00297004 5.25175e-07 4.38861e-07)
(0.00290915 -3.71489e-07 -2.97701e-07)
(0.00295315 2.61589e-07 2.01793e-07)
(0.00292162 -1.71738e-07 -1.26959e-07)
(0.00294357 1.07925e-07 7.78897e-08)
(0.00292928 -6.21023e-08 -4.36222e-08)
(0.0029379 2.99985e-08 2.1019e-08)
(0.00293324 -1.36161e-08 -7.59591e-09)
(0.00293548 3.21785e-09 -7.02536e-10)
(0.00293455 1.10467e-10 2.68239e-09)
(0.00293482 -2.27032e-09 -4.22919e-09)
(0.00293471 2.59945e-09 5.10579e-09)
(0.0029347 -2.88459e-09 -5.1413e-09)
(0.00293472 2.96534e-09 4.77099e-09)
(0.00293467 -2.91139e-09 -4.29821e-09)
(0.00293469 2.90015e-09 4.62274e-09)
(0.00293463 -2.73552e-09 -4.18095e-09)
(0.00293468 2.7666e-09 3.7414e-09)
(0.00293462 -2.72708e-09 -3.79725e-09)
(0.0029347 2.8186e-09 3.67028e-09)
(0.00293463 -2.54891e-09 -4.29318e-09)
(0.00293473 2.35748e-09 3.76699e-09)
(0.00293462 -1.99106e-09 -3.41459e-09)
(0.00293469 1.43115e-09 3.58064e-09)
(0.00293463 -1.17352e-09 -3.42436e-09)
(0.00293468 1.22344e-09 2.95611e-09)
(0.00293466 -1.35818e-09 -3.02291e-09)
(0.00293468 1.34422e-09 3.36904e-09)
(0.00293463 -1.47839e-09 -2.8742e-09)
(0.00293471 1.50523e-09 2.76134e-09)
(0.00293462 -1.42528e-09 -2.39732e-09)
(0.00293468 1.18543e-09 2.53718e-09)
(0.00293462 -1.2746e-09 -2.15759e-09)
(0.00293468 1.33826e-09 2.10939e-09)
(0.00293464 -1.53156e-09 -2.11346e-09)
(0.00293468 1.48013e-09 2.06971e-09)
(0.00293462 -1.20791e-09 -1.87065e-09)
(0.00293471 1.04561e-09 1.43885e-09)
(0.00293461 -6.22474e-10 -1.29084e-09)
(0.00293471 3.0807e-10 1.03829e-09)
(0.00293463 -9.8221e-11 -1.01888e-09)
(0.00293468 1.66135e-10 7.68073e-10)
(0.00293464 -2.35267e-10 -9.18021e-10)
(0.00293466 4.91904e-10 7.0785e-10)
(0.00342193 0.000164093 0.000129289)
(0.0043756 5.7819e-06 4.58922e-06)
(0.00366059 -3.75611e-06 -3.10824e-06)
(0.00416157 2.55573e-06 2.14171e-06)
(0.00381575 -1.76189e-06 -1.48059e-06)
(0.00405452 1.2189e-06 1.0182e-06)
(0.00388912 -8.54999e-07 -7.02976e-07)
(0.00400452 6.11937e-07 4.78815e-07)
(0.00392266 -4.38902e-07 -3.23448e-07)
(0.0039815 3.2018e-07 2.1931e-07)
(0.0039398 -2.15007e-07 -1.38364e-07)
(0.00396847 1.41587e-07 8.57988e-08)
(0.00395008 -8.57829e-08 -4.88411e-08)
(0.00396099 4.2996e-08 2.41013e-08)
(0.00395516 -2.217e-08 -9.11198e-09)
(0.0039579 6.77354e-09 -1.54438e-11)
(0.00395679 -2.51399e-09 2.44555e-09)
(0.00395709 -1.3056e-09 -4.59964e-09)
(0.00395698 1.54053e-09 5.20342e-09)
(0.00395695 -2.03621e-09 -5.41433e-09)
(0.00395699 2.02535e-09 4.96684e-09)
(0.00395691 -1.98829e-09 -4.72065e-09)
(0.00395696 1.93436e-09 4.85612e-09)
(0.00395686 -1.66308e-09 -4.53865e-09)
(0.00395695 1.74552e-09 4.02607e-09)
(0.00395686 -1.76687e-09 -3.99859e-09)
(0.00395697 2.1632e-09 3.99532e-09)
(0.00395688 -1.78478e-09 -4.36523e-09)
(0.00395699 1.68571e-09 3.92679e-09)
(0.00395686 -1.32561e-09 -3.68662e-09)
(0.00395695 4.76712e-10 3.72934e-09)
(0.00395687 -1.66684e-10 -3.59435e-09)
(0.00395694 3.31925e-10 3.22681e-09)
(0.0039569 -5.43841e-10 -3.20337e-09)
(0.00395695 4.32533e-10 3.39926e-09)
(0.00395686 -7.66583e-10 -3.04245e-09)
(0.00395698 8.71456e-10 2.9004e-09)
(0.00395685 -8.18776e-10 -2.61261e-09)
(0.00395695 3.4567e-10 2.66502e-09)
(0.00395685 -5.43755e-10 -2.32765e-09)
(0.00395695 7.47964e-10 2.25522e-09)
(0.00395687 -1.19157e-09 -2.20543e-09)
(0.00395695 1.08061e-09 2.15465e-09)
(0.00395685 -6.62158e-10 -1.98648e-09)
(0.00395696 6.11841e-10 1.53298e-09)
(0.00395685 -7.30554e-11 -1.39404e-09)
(0.00395697 -2.78043e-10 1.14479e-09)
(0.00395686 4.37736e-10 -1.13566e-09)
(0.00395693 -2.16882e-10 8.69491e-10)
(0.00395688 5.28835e-11 -8.91808e-10)
(0.00395691 5.93921e-10 7.41951e-10)
(0.00401666 0.000138713 0.00012643)
(0.0051499 5.20945e-06 4.63293e-06)
(0.00431389 -3.35723e-06 -3.14223e-06)
(0.00489934 2.27024e-06 2.16428e-06)
(0.00449491 -1.56284e-06 -1.49706e-06)
(0.00477453 1.07808e-06 1.03119e-06)
(0.00458046 -7.56304e-07 -7.12961e-07)
(0.00471609 5.43981e-07 4.86897e-07)
(0.00461996 -3.94117e-07 -3.29551e-07)
(0.00468874 2.94336e-07 2.23779e-07)
(0.00464043 -2.00594e-07 -1.41362e-07)
(0.0046733 1.35773e-07 8.77497e-08)
(0.00465246 -8.45496e-08 -5.01822e-08)
(0.00466466 4.31666e-08 2.49056e-08)
(0.00465821 -2.34021e-08 -9.62235e-09)
(0.00466119 7.43434e-09 4.29746e-10)
(0.00465999 -3.34111e-09 2.0631e-09)
(0.00466029 -5.27883e-10 -4.37753e-09)
(0.0046602 7.4716e-10 4.8505e-09)
(0.00466015 -1.22845e-09 -5.16243e-09)
(0.00466021 1.19903e-09 4.74088e-09)
(0.00466011 -9.35813e-10 -4.62407e-09)
(0.00466018 8.74406e-10 4.69558e-09)
(0.00466006 -4.85051e-10 -4.47359e-09)
(0.00466017 6.54343e-10 3.9124e-09)
(0.00466006 -7.60311e-10 -3.83112e-09)
(0.00466018 1.20183e-09 3.92551e-09)
(0.00466008 -1.093e-09 -4.12655e-09)
(0.0046602 1.07237e-09 3.75096e-09)
(0.00466007 -6.64038e-10 -3.53852e-09)
(0.00466016 -1.9161e-10 3.49808e-09)
(0.00466007 5.04489e-10 -3.36964e-09)
(0.00466016 -3.1365e-10 3.06555e-09)
(0.0046601 -1.56572e-11 -3.03397e-09)
(0.00466017 -9.62357e-11 3.15447e-09)
(0.00466005 -1.30245e-10 -2.88857e-09)
(0.0046602 2.91994e-10 2.76133e-09)
(0.00466004 -1.99385e-10 -2.54423e-09)
(0.00466018 -3.10855e-10 2.58303e-09)
(0.00466004 1.75928e-10 -2.32185e-09)
(0.00466017 7.03494e-11 2.23374e-09)
(0.00466007 -6.91688e-10 -2.16068e-09)
(0.00466016 5.69116e-10 2.17611e-09)
(0.00466005 3.00134e-12 -2.03708e-09)
(0.00466017 7.42175e-11 1.51522e-09)
(0.00466005 4.67356e-10 -1.3583e-09)
(0.00466018 -7.42285e-10 1.09618e-09)
(0.00466006 8.25365e-10 -1.06176e-09)
(0.00466014 -4.89701e-10 7.98437e-10)
(0.00466007 2.25742e-10 -7.83906e-10)
(0.00466013 5.74543e-10 6.59432e-10)
(0.00441772 0.000103802 0.000123955)
(0.00567521 4.00642e-06 4.6114e-06)
(0.00475821 -2.5731e-06 -3.13786e-06)
(0.00539977 1.7315e-06 2.15996e-06)
(0.00495631 -1.1909e-06 -1.49391e-06)
(0.00526324 8.1946e-07 1.02901e-06)
(0.0050499 -5.74437e-07 -7.11835e-07)
(0.00519917 4.13798e-07 4.86668e-07)
(0.00509347 -3.01093e-07 -3.29985e-07)
(0.00516882 2.28055e-07 2.247e-07)
(0.00511627 -1.56576e-07 -1.42112e-07)
(0.00515174 1.08088e-07 8.83513e-08)
(0.00512943 -6.87191e-08 -5.06237e-08)
(0.00514236 3.56806e-08 2.51103e-08)
(0.00513558 -1.99546e-08 -9.752e-09)
(0.00513868 6.32704e-09 4.25558e-10)
(0.00513745 -2.97734e-09 1.9985e-09)
(0.00513773 -1.83124e-10 -4.27774e-09)
(0.00513766 1.98766e-10 4.8322e-09)
(0.00513759 -6.64829e-10 -5.13417e-09)
(0.00513767 6.81621e-10 4.71299e-09)
(0.00513754 -2.99473e-10 -4.52606e-09)
(0.00513764 1.13487e-10 4.65536e-09)
(0.0051375 2.63933e-10 -4.40197e-09)
(0.00513764 -9.68127e-11 3.83924e-09)
(0.0051375 4.37971e-12 -3.78141e-09)
(0.00513764 4.35649e-10 3.86042e-09)
(0.00513753 -5.46954e-10 -4.13827e-09)
(0.00513765 6.45361e-10 3.74307e-09)
(0.00513752 -2.49015e-10 -3.48232e-09)
(0.00513762 -5.45124e-10 3.46932e-09)
(0.00513752 8.07299e-10 -3.33204e-09)
(0.00513761 -5.61209e-10 2.99224e-09)
(0.00513754 1.7121e-10 -3.00464e-09)
(0.00513764 -3.41166e-10 3.16451e-09)
(0.00513749 2.88686e-10 -2.85142e-09)
(0.00513767 -8.65426e-11 2.73202e-09)
(0.00513748 1.80006e-10 -2.49542e-09)
(0.00513764 -6.55714e-10 2.57136e-09)
(0.00513747 6.30268e-10 -2.30293e-09)
(0.00513764 -4.17903e-10 2.20683e-09)
(0.0051375 -2.59079e-10 -2.14258e-09)
(0.00513762 1.83655e-10 2.19154e-09)
(0.00513749 5.10878e-10 -2.05412e-09)
(0.00513762 -3.4411e-10 1.48821e-09)
(0.0051375 8.28159e-10 -1.32765e-09)
(0.00513763 -9.79479e-10 1.05404e-09)
(0.0051375 1.02226e-09 -1.02047e-09)
(0.0051376 -6.52699e-10 7.57106e-10)
(0.00513752 3.54285e-10 -7.72717e-10)
(0.00513758 3.79749e-10 6.75165e-10)
(0.00466716 6.40129e-05 0.000122194)
(0.00600336 2.50264e-06 4.58268e-06)
(0.00503626 -1.60681e-06 -3.12962e-06)
(0.00571229 1.07795e-06 2.15364e-06)
(0.00524479 -7.41175e-07 -1.48912e-06)
(0.00556861 5.09253e-07 1.0252e-06)
(0.00534331 -3.56815e-07 -7.09116e-07)
(0.00550106 2.57294e-07 4.84842e-07)
(0.00538944 -1.87424e-07 -3.2898e-07)
(0.0054688 1.43795e-07 2.24461e-07)
(0.00541371 -9.90693e-08 -1.42075e-07)
(0.00545069 7.01317e-08 8.84043e-08)
(0.00542757 -4.59178e-08 -5.07035e-08)
(0.00544088 2.45082e-08 2.51284e-08)
(0.00543393 -1.42687e-08 -9.75171e-09)
(0.00543708 4.50429e-09 3.89971e-10)
(0.00543584 -2.20148e-09 1.98788e-09)
(0.00543611 4.75796e-11 -4.24027e-09)
(0.00543606 -3.71589e-10 4.83269e-09)
(0.00543597 -1.11634e-10 -5.13447e-09)
(0.00543607 2.17531e-10 4.70695e-09)
(0.00543592 1.44211e-10 -4.47285e-09)
(0.00543604 -5.29563e-10 4.63391e-09)
(0.00543588 7.87623e-10 -4.36944e-09)
(0.00543603 -6.88558e-10 3.80799e-09)
(0.00543588 6.81995e-10 -3.76409e-09)
(0.00543603 -2.30665e-10 3.83152e-09)
(0.00543592 1.86709e-11 -4.14585e-09)
(0.00543604 2.27651e-10 3.74978e-09)
(0.00543591 1.04715e-10 -3.46307e-09)
(0.00543601 -8.32455e-10 3.46723e-09)
(0.00543591 1.01178e-09 -3.32405e-09)
(0.00543601 -6.71287e-10 2.96211e-09)
(0.00543592 2.68047e-10 -3.00156e-09)
(0.00543603 -5.48393e-10 3.17897e-09)
(0.00543587 6.48009e-10 -2.84183e-09)
(0.00543606 -4.10674e-10 2.72245e-09)
(0.00543586 4.52527e-10 -2.47438e-09)
(0.00543604 -8.62446e-10 2.58416e-09)
(0.00543585 9.26702e-10 -2.31536e-09)
(0.00543603 -7.8777e-10 2.19421e-09)
(0.00543588 1.43335e-10 -2.12595e-09)
(0.00543601 -1.23506e-10 2.22512e-09)
(0.00543588 8.85233e-10 -2.09735e-09)
(0.00543601 -6.77365e-10 1.47085e-09)
(0.00543588 1.07275e-09 -1.30937e-09)
(0.00543602 -1.0904e-09 1.02766e-09)
(0.00543589 1.12804e-09 -9.96823e-10)
(0.00543599 -7.78639e-10 7.3964e-10)
(0.0054359 5.03608e-10 -7.723e-10)
(0.00543597 5.80298e-11 6.92229e-10)
(0.00478703 2.1609e-05 0.000121297)
(0.00616148 8.49381e-07 4.56469e-06)
(0.00517036 -5.45609e-07 -3.12461e-06)
(0.00586284 3.65544e-07 2.15011e-06)
(0.00538385 -2.5125e-07 -1.48648e-06)
(0.00571576 1.7196e-07 1.02308e-06)
(0.00548472 -1.20429e-07 -7.07536e-07)
(0.00564654 8.69408e-08 4.83654e-07)
(0.00553209 -6.31572e-08 -3.28184e-07)
(0.00561334 5.07792e-08 2.24088e-07)
(0.00555708 -3.51057e-08 -1.41848e-07)
(0.00559474 2.73714e-08 8.82353e-08)
(0.00557126 -1.98286e-08 -5.06185e-08)
(0.00558474 1.15589e-08 2.50739e-08)
(0.00557771 -7.49137e-09 -9.69856e-09)
(0.00558089 2.25763e-09 3.79725e-10)
(0.00557964 -1.20494e-09 1.97624e-09)
(0.0055799 2.15123e-10 -4.21301e-09)
(0.00557986 -8.50185e-10 4.79784e-09)
(0.00557976 3.72418e-10 -5.12085e-09)
(0.00557987 -1.84262e-10 4.69445e-09)
(0.00557972 5.06693e-10 -4.44847e-09)
(0.00557984 -1.06706e-09 4.6152e-09)
(0.00557968 1.19471e-09 -4.36714e-09)
(0.00557984 -1.18367e-09 3.80093e-09)
(0.00557968 1.26442e-09 -3.75401e-09)
(0.00557983 -8.3827e-10 3.82258e-09)
(0.00557972 5.07676e-10 -4.12595e-09)
(0.00557985 -1.452e-10 3.74727e-09)
(0.00557971 4.07024e-10 -3.44905e-09)
(0.00557981 -1.0141e-09 3.45274e-09)
(0.00557971 1.099e-09 -3.30684e-09)
(0.00557981 -6.91167e-10 2.9418e-09)
(0.00557972 2.92416e-10 -2.99788e-09)
(0.00557984 -6.55085e-10 3.16743e-09)
(0.00557967 9.30657e-10 -2.82943e-09)
(0.00557987 -6.69966e-10 2.70988e-09)
(0.00557965 6.63269e-10 -2.46806e-09)
(0.00557985 -9.66126e-10 2.60432e-09)
(0.00557965 1.12998e-09 -2.34844e-09)
(0.00557984 -1.0787e-09 2.19461e-09)
(0.00557968 5.13753e-10 -2.11216e-09)
(0.00557982 -3.91075e-10 2.27063e-09)
(0.00557968 1.17364e-09 -2.15795e-09)
(0.00557982 -9.52419e-10 1.46337e-09)
(0.00557969 1.23019e-09 -1.30044e-09)
(0.00557982 -1.11763e-09 1.01189e-09)
(0.00557969 1.15374e-09 -9.7889e-10)
(0.00557979 -8.61632e-10 7.28239e-10)
(0.0055797 6.24701e-10 -7.59761e-10)
(0.00557977 -2.87995e-10 6.94676e-10)
(0.00478703 -2.16089e-05 0.000121296)
(0.00616148 -8.49588e-07 4.56466e-06)
(0.00517036 5.45786e-07 -3.12456e-06)
(0.00586285 -3.65503e-07 2.15006e-06)
(0.00538384 2.51541e-07 -1.48648e-06)
(0.00571577 -1.74222e-07 1.02319e-06)
(0.00548471 1.22183e-07 -7.07687e-07)
(0.00564655 -8.80957e-08 4.83769e-07)
(0.0055321 6.46464e-08 -3.28242e-07)
(0.00561333 -4.50171e-08 2.24089e-07)
(0.00555709 3.09022e-08 -1.41745e-07)
(0.00559473 -1.69348e-08 8.80448e-08)
(0.00557127 7.39696e-09 -5.04747e-08)
(0.00558473 -2.07557e-09 2.4974e-08)
(0.00557771 -2.69516e-10 -9.61344e-09)
(0.00558089 -1.70829e-10 3.55564e-10)
(0.00557964 -1.35833e-10 1.9714e-09)
(0.0055799 3.35766e-10 -4.18141e-09)
(0.00557986 -1.23811e-09 4.76395e-09)
(0.00557976 7.978e-10 -5.10832e-09)
(0.00557987 -5.56074e-10 4.68971e-09)
(0.00557972 8.22581e-10 -4.43706e-09)
(0.00557984 -1.52083e-09 4.61326e-09)
(0.00557968 1.52182e-09 -4.38226e-09)
(0.00557984 -1.60221e-09 3.80896e-09)
(0.00557968 1.75732e-09 -3.75628e-09)
(0.00557983 -1.3824e-09 3.82289e-09)
(0.00557972 9.34498e-10 -4.11441e-09)
(0.00557985 -4.89559e-10 3.7483e-09)
(0.00557971 6.64298e-10 -3.43495e-09)
(0.00557981 -1.10818e-09 3.43976e-09)
(0.00557971 1.09353e-09 -3.29166e-09)
(0.00557981 -6.47264e-10 2.92283e-09)
(0.00557972 2.79743e-10 -2.99624e-09)
(0.00557984 -6.9382e-10 3.15923e-09)
(0.00557967 1.13887e-09 -2.81755e-09)
(0.00557987 -8.72912e-10 2.70036e-09)
(0.00557965 8.25981e-10 -2.46746e-09)
(0.00557985 -9.99683e-10 2.63055e-09)
(0.00557965 1.26074e-09 -2.38777e-09)
(0.00557984 -1.30128e-09 2.20518e-09)
(0.00557968 8.52149e-10 -2.10745e-09)
(0.00557982 -6.34186e-10 2.31896e-09)
(0.00557968 1.38627e-09 -2.22027e-09)
(0.00557982 -1.17212e-09 1.46385e-09)
(0.00557969 1.31119e-09 -1.29906e-09)
(0.00557982 -1.07871e-09 1.00249e-09)
(0.00557969 1.10693e-09 -9.63448e-10)
(0.00557979 -8.91778e-10 7.14002e-10)
(0.0055797 7.02156e-10 -7.41135e-10)
(0.00557977 -6.16727e-10 6.91909e-10)
(0.00466716 -6.40126e-05 0.000122194)
(0.00600336 -2.50277e-06 4.58257e-06)
(0.00503625 1.60693e-06 -3.12947e-06)
(0.00571231 -1.07784e-06 2.15352e-06)
(0.00524475 7.41416e-07 -1.48914e-06)
(0.00556864 -5.1159e-07 1.02553e-06)
(0.00534328 3.58622e-07 -7.0955e-07)
(0.00550108 -2.58553e-07 4.85181e-07)
(0.00538945 1.88975e-07 -3.2916e-07)
(0.00546877 -1.38035e-07 2.24458e-07)
(0.00541374 9.4991e-08 -1.41782e-07)
(0.00545066 -6.00089e-08 8.78496e-08)
(0.00542759 3.39564e-08 -5.02793e-08)
(0.00544087 -1.54972e-08 2.4835e-08)
(0.00543393 6.85353e-09 -9.49803e-09)
(0.00543708 -2.51484e-09 3.26385e-10)
(0.00543584 8.30921e-10 1.96878e-09)
(0.0054361 4.48653e-10 -4.14986e-09)
(0.00543605 -1.60628e-09 4.73393e-09)
(0.00543596 1.22802e-09 -5.09425e-09)
(0.00543607 -9.66342e-10 4.68787e-09)
(0.00543592 1.11882e-09 -4.44148e-09)
(0.00543604 -1.93052e-09 4.62687e-09)
(0.00543588 1.79641e-09 -4.41313e-09)
(0.00543603 -1.96505e-09 3.83043e-09)
(0.00543588 2.18804e-09 -3.76903e-09)
(0.00543603 -1.8581e-09 3.83416e-09)
(0.00543592 1.36933e-09 -4.10716e-09)
(0.00543604 -8.58919e-10 3.74813e-09)
(0.00543591 9.04226e-10 -3.42289e-09)
(0.00543601 -1.17855e-09 3.42788e-09)
(0.00543591 1.06113e-09 -3.27843e-09)
(0.005436 -5.84193e-10 2.90919e-09)
(0.00543592 2.93332e-10 -2.99357e-09)
(0.00543603 -7.51202e-10 3.14984e-09)
(0.00543587 1.30203e-09 -2.80768e-09)
(0.00543606 -1.05034e-09 2.6948e-09)
(0.00543585 9.56949e-10 -2.47328e-09)
(0.00543604 -1.00864e-09 2.65793e-09)
(0.00543585 1.33484e-09 -2.42784e-09)
(0.00543603 -1.46329e-09 2.22415e-09)
(0.00543588 1.16023e-09 -2.11163e-09)
(0.00543601 -8.63899e-10 2.3639e-09)
(0.00543588 1.52797e-09 -2.27727e-09)
(0.00543601 -1.3354e-09 1.47244e-09)
(0.00543588 1.3282e-09 -1.3053e-09)
(0.00543601 -9.91646e-10 1.00044e-09)
(0.00543589 1.00759e-09 -9.51683e-10)
(0.00543599 -8.72696e-10 6.99146e-10)
(0.0054359 7.46162e-10 -7.1862e-10)
(0.00543597 -9.15523e-10 6.8625e-10)
(0.00441772 -0.000103802 0.000123955)
(0.00567521 -4.00645e-06 4.61127e-06)
(0.0047582 2.57319e-06 -3.13763e-06)
(0.00539979 -1.73141e-06 2.15979e-06)
(0.00495625 1.19114e-06 -1.49397e-06)
(0.0052633 -8.22024e-07 1.02952e-06)
(0.00504985 5.76354e-07 -7.12493e-07)
(0.0051992 -4.15263e-07 4.87219e-07)
(0.00509348 3.02803e-07 -3.30293e-07)
(0.00516878 -2.22286e-07 2.2468e-07)
(0.00511631 1.52783e-07 -1.41646e-07)
(0.0051517 -9.86243e-08 8.74599e-08)
(0.00512946 5.77128e-08 -4.99222e-08)
(0.00514234 -2.76383e-08 2.46166e-08)
(0.00513558 1.322e-08 -9.3226e-09)
(0.00513867 -4.5875e-09 3.27756e-10)
(0.00513745 1.59711e-09 1.95486e-09)
(0.00513772 5.78452e-10 -4.1497e-09)
(0.00513766 -1.94074e-09 4.69617e-09)
(0.00513758 1.65034e-09 -5.06933e-09)
(0.00513767 -1.40571e-09 4.66905e-09)
(0.00513754 1.4413e-09 -4.48498e-09)
(0.00513764 -2.31151e-09 4.65001e-09)
(0.0051375 2.06434e-09 -4.4728e-09)
(0.00513763 -2.29921e-09 3.87901e-09)
(0.0051375 2.56567e-09 -3.79632e-09)
(0.00513764 -2.27922e-09 3.87398e-09)
(0.00513753 1.79448e-09 -4.07076e-09)
(0.00513765 -1.23833e-09 3.72766e-09)
(0.00513752 1.13711e-09 -3.42722e-09)
(0.00513761 -1.23644e-09 3.41448e-09)
(0.00513752 1.02358e-09 -3.26889e-09)
(0.00513761 -5.41115e-10 2.92285e-09)
(0.00513754 3.46426e-10 -2.98355e-09)
(0.00513764 -8.26964e-10 3.11081e-09)
(0.00513749 1.42799e-09 -2.80611e-09)
(0.00513766 -1.20908e-09 2.69343e-09)
(0.00513747 1.07599e-09 -2.4967e-09)
(0.00513764 -1.02122e-09 2.68592e-09)
(0.00513747 1.37793e-09 -2.47742e-09)
(0.00513764 -1.58616e-09 2.25488e-09)
(0.0051375 1.43496e-09 -2.12442e-09)
(0.00513762 -1.08005e-09 2.40063e-09)
(0.00513749 1.61182e-09 -2.32948e-09)
(0.00513762 -1.45434e-09 1.49107e-09)
(0.0051375 1.30621e-09 -1.32133e-09)
(0.00513763 -8.85618e-10 1.01115e-09)
(0.0051375 8.77931e-10 -9.49225e-10)
(0.0051376 -8.11213e-10 6.96244e-10)
(0.00513751 7.46536e-10 -6.92479e-10)
(0.00513758 -1.13638e-09 6.71539e-10)
(0.00401666 -0.000138713 0.00012643)
(0.0051499 -5.20945e-06 4.63279e-06)
(0.00431387 3.35736e-06 -3.14194e-06)
(0.00489936 -2.27037e-06 2.16401e-06)
(0.00449484 1.56322e-06 -1.49712e-06)
(0.0047746 -1.0808e-06 1.03176e-06)
(0.00458039 7.58145e-07 -7.13745e-07)
(0.00471613 -5.45438e-07 4.87577e-07)
(0.00461997 3.95939e-07 -3.29919e-07)
(0.0046887 -2.88551e-07 2.23741e-07)
(0.00464049 1.97251e-07 -1.40733e-07)
(0.00467324 -1.27374e-07 8.65581e-08)
(0.0046525 7.50137e-08 -4.92077e-08)
(0.00466463 -3.65806e-08 2.41765e-08)
(0.00465822 1.7592e-08 -9.01255e-09)
(0.00466118 -6.03966e-09 2.30147e-10)
(0.00465999 1.97303e-09 2.05767e-09)
(0.00466028 8.5131e-10 -4.24452e-09)
(0.0046602 -2.23342e-09 4.7374e-09)
(0.00466014 2.05963e-09 -5.11738e-09)
(0.00466021 -1.86297e-09 4.71908e-09)
(0.0046601 1.93574e-09 -4.58393e-09)
(0.00466018 -2.71618e-09 4.71417e-09)
(0.00466006 2.45653e-09 -4.56976e-09)
(0.00466017 -2.69203e-09 3.97174e-09)
(0.00466005 2.92561e-09 -3.86776e-09)
(0.00466018 -2.73299e-09 3.95201e-09)
(0.00466008 2.1535e-09 -4.07743e-09)
(0.0046602 -1.60342e-09 3.75832e-09)
(0.00466007 1.42254e-09 -3.48828e-09)
(0.00466016 -1.30527e-09 3.45677e-09)
(0.00466007 1.02875e-09 -3.31604e-09)
(0.00466015 -6.26682e-10 2.99565e-09)
(0.0046601 4.72521e-10 -3.02953e-09)
(0.00466017 -8.93498e-10 3.12076e-09)
(0.00466005 1.55598e-09 -2.85032e-09)
(0.0046602 -1.37441e-09 2.72938e-09)
(0.00466004 1.24962e-09 -2.55279e-09)
(0.00466018 -1.09372e-09 2.73159e-09)
(0.00466003 1.46597e-09 -2.53595e-09)
(0.00466017 -1.73098e-09 2.29517e-09)
(0.00466006 1.6907e-09 -2.15257e-09)
(0.00466016 -1.29862e-09 2.43502e-09)
(0.00466005 1.68455e-09 -2.36864e-09)
(0.00466017 -1.56504e-09 1.51796e-09)
(0.00466005 1.29486e-09 -1.347e-09)
(0.00466017 -8.17243e-10 1.03918e-09)
(0.00466006 7.54571e-10 -9.67247e-10)
(0.00466014 -7.29488e-10 7.19724e-10)
(0.00466007 6.83224e-10 -6.91678e-10)
(0.00466012 -1.18838e-09 6.6175e-10)
(0.00342193 -0.000164093 0.000129288)
(0.0043756 -5.78202e-06 4.589e-06)
(0.00366057 3.7563e-06 -3.10788e-06)
(0.00416159 -2.55617e-06 2.14121e-06)
(0.00381568 1.76258e-06 -1.48053e-06)
(0.00405459 -1.22122e-06 1.01886e-06)
(0.00388905 8.564e-07 -7.03979e-07)
(0.00400457 -6.12794e-07 4.79719e-07)
(0.00392267 4.40448e-07 -3.23863e-07)
(0.00398146 -3.14791e-07 2.19424e-07)
(0.00393987 2.12374e-07 -1.37748e-07)
(0.00396841 -1.34866e-07 8.45036e-08)
(0.00395012 7.83401e-08 -4.77633e-08)
(0.00396096 -3.82694e-08 2.32527e-08)
(0.00395518 1.75474e-08 -8.51426e-09)
(0.00395789 -5.6263e-09 -2.71738e-10)
(0.00395678 1.13074e-09 2.49984e-09)
(0.00395708 1.54879e-09 -4.36736e-09)
(0.00395697 -2.80741e-09 4.98712e-09)
(0.00395695 2.76739e-09 -5.34487e-09)
(0.00395699 -2.67467e-09 4.99585e-09)
(0.00395691 2.77543e-09 -4.62184e-09)
(0.00395696 -3.36151e-09 4.84657e-09)
(0.00395686 3.16812e-09 -4.61572e-09)
(0.00395695 -3.29823e-09 4.06096e-09)
(0.00395686 3.41495e-09 -3.99441e-09)
(0.00395696 -3.27619e-09 3.96563e-09)
(0.00395688 2.71201e-09 -4.3176e-09)
(0.00395699 -2.20578e-09 3.97023e-09)
(0.00395686 1.92559e-09 -3.5742e-09)
(0.00395695 -1.67191e-09 3.62827e-09)
(0.00395687 1.37025e-09 -3.46739e-09)
(0.00395694 -1.06379e-09 3.0696e-09)
(0.0039569 9.75197e-10 -3.21491e-09)
(0.00395695 -1.2997e-09 3.37145e-09)
(0.00395686 1.85191e-09 -2.94194e-09)
(0.00395698 -1.71337e-09 2.83403e-09)
(0.00395685 1.6054e-09 -2.59672e-09)
(0.00395695 -1.43616e-09 2.81766e-09)
(0.00395685 1.72269e-09 -2.55855e-09)
(0.00395695 -1.96112e-09 2.29874e-09)
(0.00395687 1.97752e-09 -2.18378e-09)
(0.00395695 -1.65231e-09 2.49069e-09)
(0.00395685 1.84484e-09 -2.37731e-09)
(0.00395696 -1.69443e-09 1.52372e-09)
(0.00395685 1.34994e-09 -1.35924e-09)
(0.00395696 -8.73572e-10 1.0613e-09)
(0.00395686 7.25468e-10 -9.99686e-10)
(0.00395693 -6.77535e-10 7.4797e-10)
(0.00395687 6.26035e-10 -7.62537e-10)
(0.00395691 -1.01967e-09 7.7332e-10)
(0.00254958 -0.000159628 0.000126952)
(0.00324849 -4.91028e-06 4.17923e-06)
(0.00271273 3.22349e-06 -2.83269e-06)
(0.00308789 -2.20692e-06 1.95172e-06)
(0.00282909 1.52406e-06 -1.34861e-06)
(0.00300755 -1.05749e-06 9.28914e-07)
(0.00288419 7.40815e-07 -6.42818e-07)
(0.00297008 -5.25704e-07 4.40291e-07)
(0.00290916 3.72652e-07 -2.98897e-07)
(0.0029531 -2.58113e-07 2.02295e-07)
(0.00292167 1.70307e-07 -1.27061e-07)
(0.00294351 -1.03907e-07 7.72183e-08)
(0.00292931 5.77279e-08 -4.3202e-08)
(0.00293787 -2.74023e-08 2.06939e-08)
(0.00293325 1.0839e-08 -7.30097e-09)
(0.00293547 -2.43102e-09 -4.67125e-10)
(0.00293454 -1.16732e-09 2.44691e-09)
(0.00293482 2.31603e-09 -3.9213e-09)
(0.00293471 -3.35619e-09 4.57614e-09)
(0.0029347 3.37109e-09 -4.82703e-09)
(0.00293472 -3.44037e-09 4.55808e-09)
(0.00293467 3.33336e-09 -4.17266e-09)
(0.00293469 -3.73201e-09 4.41978e-09)
(0.00293463 3.60093e-09 -4.18655e-09)
(0.00293468 -3.59559e-09 3.69462e-09)
(0.00293462 3.57713e-09 -3.64686e-09)
(0.0029347 -3.35345e-09 3.63416e-09)
(0.00293463 3.14687e-09 -3.95815e-09)
(0.00293472 -2.7472e-09 3.62256e-09)
(0.00293462 2.29894e-09 -3.21577e-09)
(0.00293469 -2.13145e-09 3.25594e-09)
(0.00293463 1.85346e-09 -3.09692e-09)
(0.00293468 -1.58625e-09 2.72058e-09)
(0.00293466 1.66807e-09 -2.88027e-09)
(0.00293468 -1.91624e-09 3.06407e-09)
(0.00293463 2.07276e-09 -2.67236e-09)
(0.00293471 -1.97687e-09 2.57098e-09)
(0.00293462 1.84827e-09 -2.33484e-09)
(0.00293468 -1.82312e-09 2.51778e-09)
(0.00293462 1.88659e-09 -2.3003e-09)
(0.00293469 -1.96044e-09 2.10647e-09)
(0.00293464 2.02644e-09 -2.00507e-09)
(0.00293468 -1.93147e-09 2.24969e-09)
(0.00293462 1.86279e-09 -2.15473e-09)
(0.0029347 -1.6002e-09 1.41919e-09)
(0.00293461 1.27246e-09 -1.25452e-09)
(0.00293471 -9.06391e-10 9.65594e-10)
(0.00293463 6.88675e-10 -8.84387e-10)
(0.00293468 -6.03317e-10 6.69999e-10)
(0.00293464 5.71321e-10 -7.19154e-10)
(0.00293466 -6.56738e-10 6.84282e-10)
(0.00120199 -7.81726e-05 7.81726e-05)
(0.00152362 -2.29213e-06 2.29207e-06)
(0.00126858 1.56336e-06 -1.56345e-06)
(0.00144649 -1.07792e-06 1.07754e-06)
(0.00132392 7.45143e-07 -7.44594e-07)
(0.00140824 -5.17103e-07 5.16529e-07)
(0.00135014 3.61231e-07 -3.61025e-07)
(0.00139049 -2.53689e-07 2.53714e-07)
(0.00136181 1.7782e-07 -1.77452e-07)
(0.00138267 -1.20909e-07 1.22578e-07)
(0.00136753 7.94685e-08 -7.94087e-08)
(0.00137821 -4.81927e-08 4.90208e-08)
(0.00137116 2.67732e-08 -2.79085e-08)
(0.00137548 -1.33272e-08 1.36558e-08)
(0.00137312 4.95597e-09 -5.63715e-09)
(0.00137427 -1.13877e-09 1.19418e-09)
(0.00137379 -8.0624e-10 2.95408e-10)
(0.00137394 1.3141e-09 -1.33091e-09)
(0.00137387 -1.75484e-09 1.62569e-09)
(0.00137388 1.8405e-09 -1.7417e-09)
(0.00137388 -1.88158e-09 1.68712e-09)
(0.00137386 1.84975e-09 -1.72329e-09)
(0.00137386 -1.90977e-09 1.82242e-09)
(0.00137384 1.91502e-09 -1.76734e-09)
(0.00137386 -1.84751e-09 1.6503e-09)
(0.00137383 1.79284e-09 -1.62414e-09)
(0.00137387 -1.71449e-09 1.64341e-09)
(0.00137384 1.66601e-09 -1.52106e-09)
(0.00137388 -1.50489e-09 1.34652e-09)
(0.00137383 1.27367e-09 -1.21771e-09)
(0.00137387 -1.17491e-09 1.09279e-09)
(0.00137383 1.05478e-09 -9.97236e-10)
(0.00137386 -9.63997e-10 9.03148e-10)
(0.00137385 1.01624e-09 -8.98668e-10)
(0.00137386 -1.09379e-09 9.60602e-10)
(0.00137384 1.0779e-09 -9.99095e-10)
(0.00137387 -1.04285e-09 9.76203e-10)
(0.00137383 9.97762e-10 -9.2006e-10)
(0.00137386 -1.0174e-09 9.39985e-10)
(0.00137383 9.89235e-10 -9.54738e-10)
(0.00137386 -9.9738e-10 9.44688e-10)
(0.00137384 1.00359e-09 -9.14877e-10)
(0.00137386 -1.0141e-09 9.32322e-10)
(0.00137383 9.44508e-10 -9.24626e-10)
(0.00137387 -7.68843e-10 6.92113e-10)
(0.00137383 6.19681e-10 -5.56607e-10)
(0.00137387 -4.7362e-10 3.73016e-10)
(0.00137384 3.63404e-10 -2.90943e-10)
(0.00137386 -2.92503e-10 2.26452e-10)
(0.00137384 2.50495e-10 -2.12506e-10)
(0.00137385 -2.17042e-10 2.88327e-10)
(0.00254958 0.000126953 0.000159629)
(0.00324849 4.17964e-06 4.91023e-06)
(0.00271274 -2.83332e-06 -3.22337e-06)
(0.00308787 1.95231e-06 2.20664e-06)
(0.00282915 -1.34921e-06 -1.52352e-06)
(0.00300748 9.27862e-07 1.05611e-06)
(0.00288426 -6.42361e-07 -7.39838e-07)
(0.00297004 4.39318e-07 5.24911e-07)
(0.00290915 -2.97164e-07 -3.71691e-07)
(0.00295315 2.02145e-07 2.61416e-07)
(0.00292162 -1.26589e-07 -1.71729e-07)
(0.00294357 7.80075e-08 1.07552e-07)
(0.00292928 -4.3157e-08 -6.19049e-08)
(0.0029379 2.01879e-08 3.01409e-08)
(0.00293324 -8.22802e-09 -1.30351e-08)
(0.00293548 -6.36773e-10 3.11838e-09)
(0.00293455 2.66652e-09 4.95657e-11)
(0.00293482 -4.23194e-09 -2.25976e-09)
(0.00293471 4.94251e-09 2.70557e-09)
(0.0029347 -5.0621e-09 -2.93663e-09)
(0.00293472 4.81203e-09 2.90869e-09)
(0.00293467 -4.25945e-09 -2.9393e-09)
(0.00293469 4.58458e-09 2.9848e-09)
(0.00293463 -4.05502e-09 -2.84601e-09)
(0.00293468 3.88716e-09 2.80701e-09)
(0.00293462 -3.99637e-09 -2.76672e-09)
(0.0029347 3.59399e-09 2.92156e-09)
(0.00293463 -4.27877e-09 -2.58498e-09)
(0.00293473 3.75164e-09 2.34883e-09)
(0.00293462 -3.40422e-09 -2.0162e-09)
(0.00293469 3.54307e-09 1.51466e-09)
(0.00293463 -3.36993e-09 -1.25393e-09)
(0.00293468 2.94033e-09 1.2736e-09)
(0.00293466 -3.02373e-09 -1.35465e-09)
(0.00293468 3.32777e-09 1.38647e-09)
(0.00293463 -2.80157e-09 -1.56587e-09)
(0.00293471 2.73829e-09 1.56003e-09)
(0.00293462 -2.35702e-09 -1.46795e-09)
(0.00293468 2.42047e-09 1.36456e-09)
(0.00293462 -2.00258e-09 -1.50868e-09)
(0.00293468 1.94582e-09 1.48372e-09)
(0.00293464 -2.08078e-09 -1.54421e-09)
(0.00293468 1.88209e-09 1.63418e-09)
(0.00293462 -1.5043e-09 -1.58324e-09)
(0.00293471 1.34501e-09 1.13703e-09)
(0.00293461 -1.17099e-09 -7.66544e-10)
(0.00293471 9.30043e-10 3.9725e-10)
(0.00293463 -9.05378e-10 -2.17966e-10)
(0.00293468 6.91074e-10 2.33802e-10)
(0.00293464 -8.82107e-10 -2.77144e-10)
(0.00293466 7.46688e-10 5.04716e-10)
(0.00601925 0.000284269 0.000284269)
(0.00770405 9.42903e-06 9.42904e-06)
(0.00644813 -6.09705e-06 -6.09703e-06)
(0.00732843 4.14973e-06 4.14974e-06)
(0.00672029 -2.86691e-06 -2.86708e-06)
(0.00714067 1.99424e-06 1.99431e-06)
(0.00684951 -1.40149e-06 -1.40181e-06)
(0.00705227 1.00097e-06 1.00104e-06)
(0.00690944 -7.13185e-07 -7.12503e-07)
(0.00701105 4.9968e-07 4.99568e-07)
(0.00693915 -3.32342e-07 -3.31013e-07)
(0.00698864 2.08152e-07 2.06982e-07)
(0.00695631 -1.20107e-07 -1.1836e-07)