/*--------------------------------*- C++ -*----------------------------------*\
  =========                 |
  \\      /  F ield         | OpenFOAM: The Open Source CFD Toolbox
   \\    /   O peration     | Website:  https://openfoam.org
    \\  /    A nd           | Version:  13
     \\/     M anipulation  |
\*---------------------------------------------------------------------------*/
FoamFile
{
    format      ascii;
    class       surfaceScalarField;
    location    "29";
    object      phi;
}
// * * * * * * * * * * * * * * * * * * * * * * * * * * * * * * * * * * * * * //

dimensions      [0 3 -1 0 0 0 0];

internalField   nonuniform List<scalar> 
28364
(
8.2578e-14
3.83966e-13
3.83966e-13
6.185e-14
1.03642e-14
1.03643e-14
7.58492e-14
-6.99972e-15
-6.9995e-15
6.60879e-14
4.88087e-15
4.88089e-15
7.28959e-14
-3.40379e-15
-3.4042e-15
6.81258e-14
2.38303e-15
2.38308e-15
7.14951e-14
-1.68372e-15
-1.68357e-15
6.90881e-14
1.20133e-15
1.20097e-15
7.081e-14
-8.57869e-16
-8.57636e-16
6.95996e-14
6.07686e-16
6.07544e-16
7.04168e-14
-4.09091e-16
-4.09076e-16
6.99004e-14
2.62567e-16
2.62457e-16
7.02032e-14
-1.55074e-16
-1.54617e-16
7.0047e-14
8.02628e-17
8.00999e-17
7.01157e-14
-3.76624e-17
-3.70583e-17
7.0094e-14
1.18026e-17
1.16099e-17
7.00931e-14
-1.31056e-18
-1.55799e-18
7.01013e-14
-4.136e-18
-4.11311e-18
7.00878e-14
6.23966e-18
6.35743e-18
7.01022e-14
-6.98216e-18
-7.04905e-18
7.00871e-14
7.04238e-18
6.92917e-18
7.01015e-14
-7.0033e-18
-6.97126e-18
7.00861e-14
7.46046e-18
7.57534e-18
7.01013e-14
-7.33425e-18
-7.46703e-18
7.00862e-14
7.2095e-18
7.45996e-18
7.01012e-14
-7.09509e-18
-7.37295e-18
7.0087e-14
6.91794e-18
6.97648e-18
7.01007e-14
-6.45842e-18
-6.47296e-18
7.00886e-14
5.6761e-18
5.63205e-18
7.00987e-14
-4.9048e-18
-4.9018e-18
7.00896e-14
4.31755e-18
4.3728e-18
7.00974e-14
-3.76007e-18
-3.81481e-18
7.00906e-14
3.2471e-18
3.2658e-18
7.00978e-14
-3.35203e-18
-3.32776e-18
7.00897e-14
3.73299e-18
3.72688e-18
7.00979e-14
-3.96888e-18
-3.98919e-18
7.00896e-14
3.92888e-18
3.95354e-18
7.00974e-14
-3.76066e-18
-3.77206e-18
7.00897e-14
3.51512e-18
3.87585e-18
7.00974e-14
-3.61702e-18
-3.97253e-18
7.00893e-14
3.88916e-18
3.9896e-18
7.00979e-14
-4.14531e-18
-4.13933e-18
7.00894e-14
3.87631e-18
4.30458e-18
7.00972e-14
-3.61978e-18
-4.13633e-18
7.00902e-14
3.35764e-18
3.38392e-18
7.0096e-14
-2.87236e-18
-2.86561e-18
7.00911e-14
2.3848e-18
2.36346e-18
7.00954e-14
-2.09525e-18
-2.0653e-18
7.00917e-14
1.84084e-18
1.80678e-18
7.00946e-14
-1.47943e-18
-1.43165e-18
1.5215e-18
1.46555e-18
1.6342e-13
4.5374e-13
6.17316e-13
1.40863e-13
1.48026e-14
1.81203e-14
1.55905e-13
-9.88158e-15
-1.21601e-14
1.4543e-13
6.88749e-15
8.46983e-15
1.52733e-13
-4.79547e-15
-5.91135e-15
1.47615e-13
3.34617e-15
4.14305e-15
1.51234e-13
-2.35956e-15
-2.93689e-15
1.48638e-13
1.68602e-15
2.09699e-15
1.50504e-13
-1.21357e-15
-1.49111e-15
1.4919e-13
8.89144e-16
1.04608e-15
1.50076e-13
-6.16598e-16
-6.81033e-16
1.49522e-13
4.20554e-16
4.21186e-16
1.49844e-13
-2.64742e-16
-2.31807e-16
1.49683e-13
1.466e-16
1.06705e-16
1.4975e-13
-7.89093e-17
-4.33684e-17
1.49731e-13
3.09455e-17
4.34653e-18
1.49727e-13
-1.18591e-17
4.10768e-18
1.49736e-13
-1.68217e-18
-1.21291e-17
1.4972e-13
3.3691e-18
1.58409e-17
1.49736e-13
-5.62016e-18
-1.60536e-17
1.4972e-13
5.71313e-18
1.48326e-17
1.49735e-13
-6.27741e-18
-1.48742e-17
1.49718e-13
6.02229e-18
1.72789e-17
1.49734e-13
-6.16654e-18
-1.64286e-17
1.49718e-13
6.28475e-18
1.60231e-17
1.49734e-13
-6.07983e-18
-1.58853e-17
1.49719e-13
6.65859e-18
1.4757e-17
1.49734e-13
-5.09644e-18
-1.43955e-17
1.49721e-13
4.77545e-18
1.19422e-17
1.49732e-13
-4.25064e-18
-1.05889e-17
1.49722e-13
2.57206e-18
1.04919e-17
1.4973e-13
-1.9221e-18
-9.48187e-18
1.49723e-13
1.84722e-18
7.51805e-18
1.49731e-13
-1.87173e-18
-7.65161e-18
1.49722e-13
1.58973e-18
9.25786e-18
1.49731e-13
-2.53668e-18
-9.67199e-18
1.49722e-13
2.84029e-18
9.09913e-18
1.4973e-13
-3.00487e-18
-8.3436e-18
1.49722e-13
2.3372e-18
8.55167e-18
1.4973e-13
-3.23904e-18
-8.34949e-18
1.49721e-13
3.6516e-18
8.44258e-18
1.49731e-13
-3.97258e-18
-8.81066e-18
1.49721e-13
3.74737e-18
8.6692e-18
1.4973e-13
-3.72022e-18
-8.29838e-18
1.49722e-13
3.3531e-18
6.9452e-18
1.49728e-13
-2.77612e-18
-6.23897e-18
1.49723e-13
2.14397e-18
5.13951e-18
1.49728e-13
-1.70173e-18
-4.71799e-18
1.49724e-13
1.6621e-18
4.02498e-18
1.49727e-13
-7.70784e-19
-3.59942e-18
1.63952e-18
4.88939e-18
2.144e-13
4.19146e-13
6.70704e-13
1.93815e-13
1.46934e-14
2.06952e-14
2.07488e-13
-9.71244e-15
-1.38421e-14
1.97984e-13
6.76475e-15
9.6281e-15
2.04611e-13
-4.70345e-15
-6.71921e-15
1.99962e-13
3.27394e-15
4.71026e-15
2.03256e-13
-2.30769e-15
-3.34008e-15
2.00885e-13
1.65435e-15
2.3889e-15
2.02592e-13
-1.20113e-15
-1.70067e-15
2.01398e-13
8.99706e-16
1.19777e-15
2.02194e-13
-6.34264e-16
-7.81039e-16
2.01709e-13
4.4519e-16
4.85262e-16
2.0198e-13
-2.87743e-16
-2.68299e-16
2.01853e-13
1.6235e-16
1.23629e-16
2.01899e-13
-9.13586e-17
-5.14949e-17
2.01892e-13
3.69147e-17
6.34042e-18
2.01882e-13
-1.61971e-17
3.6365e-18
2.01893e-13
6.53432e-19
-1.3589e-17
2.01876e-13
8.80875e-19
1.64578e-17
2.01892e-13
-3.46639e-18
-1.70359e-17
2.01875e-13
3.50549e-18
1.59572e-17
2.0189e-13
-3.89002e-18
-1.63039e-17
2.01873e-13
3.54525e-18
1.85872e-17
2.01889e-13
-3.61807e-18
-1.78226e-17
2.01873e-13
3.69256e-18
1.76992e-17
2.01889e-13
-3.57159e-18
-1.74582e-17
2.01874e-13
4.66535e-18
1.62369e-17
2.0189e-13
-3.18459e-18
-1.51237e-17
2.01876e-13
3.09555e-18
1.27391e-17
2.01887e-13
-2.60106e-18
-1.13266e-17
2.01877e-13
7.56375e-19
1.06864e-17
2.01885e-13
-1.09696e-19
-9.55625e-18
2.01878e-13
7.14024e-20
7.72733e-18
2.01886e-13
-2.44504e-19
-7.88666e-18
2.01877e-13
-1.17563e-19
9.19225e-18
2.01886e-13
-9.20136e-19
-9.96969e-18
2.01877e-13
1.38003e-18
9.57045e-18
2.01885e-13
-1.62298e-18
-8.87751e-18
2.01877e-13
5.6126e-19
9.22988e-18
2.01885e-13
-1.69908e-18
-9.38372e-18
2.01876e-13
2.49999e-18
9.20365e-18
2.01886e-13
-3.08293e-18
-9.48047e-18
2.01876e-13
2.4661e-18
9.79823e-18
2.01885e-13
-2.4044e-18
-9.59598e-18
2.01877e-13
2.54917e-18
7.65386e-18
2.01883e-13
-2.0234e-18
-6.78496e-18
2.01878e-13
1.40756e-18
5.54248e-18
2.01883e-13
-1.02369e-18
-4.98885e-18
2.01878e-13
1.10774e-18
4.3871e-18
2.01882e-13
-1.28714e-19
-3.52269e-18
1.41271e-18
5.13463e-18
2.49366e-13
3.38347e-13
6.81942e-13
2.30231e-13
1.2313e-14
2.1517e-14
2.42978e-13
-8.08476e-15
-1.43742e-14
2.34132e-13
5.62776e-15
9.98436e-15
2.40302e-13
-3.90841e-15
-6.96534e-15
2.35969e-13
2.71387e-15
4.88217e-15
2.39042e-13
-1.91063e-15
-3.46485e-15
2.36827e-13
1.37045e-15
2.48575e-15
2.38421e-13
-9.99596e-16
-1.77753e-15
2.37313e-13
7.59326e-16
1.26214e-15
2.38045e-13
-5.40835e-16
-8.28138e-16
2.37608e-13
3.87355e-16
5.1927e-16
2.37847e-13
-2.54704e-16
-2.90413e-16
2.3774e-13
1.45621e-16
1.34956e-16
2.37774e-13
-8.43066e-17
-5.8135e-17
2.37773e-13
3.40662e-17
8.9715e-18
2.37759e-13
-1.5351e-17
1.73814e-18
2.37771e-13
1.4357e-18
-1.28514e-17
2.37754e-13
-4.06566e-19
1.57085e-17
2.3777e-13
-2.05984e-18
-1.63359e-17
2.37753e-13
2.16353e-18
1.5251e-17
2.37768e-13
-2.16924e-18
-1.56008e-17
2.37751e-13
1.734e-18
1.80298e-17
2.37767e-13
-1.68331e-18
-1.72363e-17
2.37751e-13
1.51739e-18
1.72931e-17
2.37767e-13
-1.403e-18
-1.71374e-17
2.37752e-13
2.80101e-18
1.59306e-17
2.37768e-13
-1.84293e-18
-1.46071e-17
2.37754e-13
1.96369e-18
1.22039e-17
2.37765e-13
-1.43332e-18
-1.07463e-17
2.37755e-13
-1.83862e-19
9.92136e-18
2.37763e-13
7.33284e-19
-8.71474e-18
2.37756e-13
-7.84446e-19
6.85783e-18
2.37764e-13
4.17341e-19
-7.08075e-18
2.37755e-13
-7.88667e-19
8.41509e-18
2.37764e-13
4.85591e-20
-9.39663e-18
2.37754e-13
4.48081e-19
9.10661e-18
2.37763e-13
-6.71883e-19
-8.42895e-18
2.37754e-13
-7.78214e-19
8.87904e-18
2.37762e-13
-2.35531e-19
-9.24018e-18
2.37754e-13
1.41539e-18
9.03547e-18
2.37763e-13
-2.21151e-18
-9.36625e-18
2.37754e-13
9.68589e-19
9.9308e-18
2.37762e-13
-7.01899e-19
-9.83809e-18
2.37755e-13
1.70695e-18
7.60632e-18
2.37761e-13
-1.34542e-18
-6.63091e-18
2.37755e-13
8.57482e-19
5.31842e-18
2.3776e-13
-5.87513e-19
-4.73907e-18
2.37756e-13
7.34618e-19
4.19045e-18
2.37759e-13
8.2992e-20
-3.13592e-18
1.34354e-18
4.90339e-18
2.73057e-13
2.34752e-13
6.81048e-13
2.54954e-13
8.72482e-15
2.16923e-14
2.67077e-13
-5.70626e-15
-1.45014e-14
2.58672e-13
3.97108e-15
1.00632e-14
2.64536e-13
-2.75587e-15
-7.01727e-15
2.60414e-13
1.91061e-15
4.9142e-15
2.63339e-13
-1.34383e-15
-3.48641e-15
2.6123e-13
9.64084e-16
2.50194e-15
2.62747e-13
-7.05264e-16
-1.79211e-15
2.617e-13
5.40964e-16
1.27889e-15
2.62387e-13
-3.88546e-16
-8.42391e-16
2.61983e-13
2.83797e-16
5.31788e-16
2.62199e-13
-1.89714e-16
-2.99706e-16
2.62105e-13
1.10359e-16
1.402e-16
2.62132e-13
-6.58877e-17
-6.15239e-17
2.62134e-13
2.67253e-17
1.00895e-17
2.62119e-13
-1.19777e-17
1.0549e-18
2.62131e-13
1.54068e-18
-1.26151e-17
2.62114e-13
-1.53368e-18
1.57242e-17
2.6213e-13
-7.21409e-19
-1.62496e-17
2.62112e-13
1.05105e-18
1.51119e-17
2.62127e-13
-9.28477e-19
-1.51687e-17
2.6211e-13
2.47868e-19
1.77283e-17
2.62127e-13
-2.44816e-19
-1.67693e-17
2.6211e-13
-2.22546e-19
1.68776e-17
2.62127e-13
4.74036e-19
-1.68486e-17
2.62112e-13
1.1149e-18
1.56395e-17
2.62127e-13
-5.04469e-19
-1.45919e-17
2.62114e-13
9.19701e-19
1.21167e-17
2.62124e-13
-4.15031e-19
-1.05815e-17
2.62114e-13
-9.49326e-19
9.84012e-18
2.62123e-13
1.32813e-18
-8.59286e-18
2.62116e-13
-1.24716e-18
6.59878e-18
2.62124e-13
7.35908e-19
-6.89625e-18
2.62114e-13
-1.24958e-18
8.37286e-18
2.62123e-13
8.09067e-19
-9.2433e-18
2.62114e-13
-3.15558e-19
8.97939e-18
2.62122e-13
4.72136e-20
-8.21545e-18
2.62114e-13
-1.78949e-18
8.62857e-18
2.62122e-13
9.52758e-19
-8.93831e-18
2.62113e-13
4.6458e-19
8.83506e-18
2.62123e-13
-1.29714e-18
-9.30435e-18
2.62113e-13
-4.39862e-19
9.74753e-18
2.62122e-13
8.90346e-19
-9.60192e-18
2.62114e-13
9.20068e-19
7.47586e-18
2.6212e-13
-7.62591e-19
-6.47702e-18
2.62115e-13
4.54226e-19
5.15835e-18
2.6212e-13
-2.57509e-19
-4.6271e-18
2.62116e-13
4.36858e-19
4.10016e-18
2.62119e-13
1.8405e-19
-3.06972e-18
1.13127e-18
5.00981e-18
2.8784e-13
1.19802e-13
6.7762e-13
2.70404e-13
4.50095e-15
2.16608e-14
2.82139e-13
-2.93825e-15
-1.4503e-14
2.74007e-13
2.0448e-15
1.00602e-14
2.79683e-13
-1.41801e-15
-7.01391e-15
2.75692e-13
9.81392e-16
4.90977e-15
2.78524e-13
-6.89517e-16
-3.48197e-15
2.76482e-13
4.94446e-16
2.49822e-15
2.77948e-13
-3.63e-16
-1.79001e-15
2.76941e-13
2.82348e-16
1.27972e-15
2.776e-13
-2.0571e-16
-8.44567e-16
2.77216e-13
1.56392e-16
5.34769e-16
2.77419e-13
-1.07857e-16
-3.02523e-16
2.77332e-13
6.52669e-17
1.42109e-16
2.77355e-13
-4.13003e-17
-6.29804e-17
2.77359e-13
1.68432e-17
1.08838e-17
2.77342e-13
-7.28448e-18
7.28811e-19
2.77355e-13
1.28387e-18
-1.25121e-17
2.77337e-13
-2.40098e-18
1.55225e-17
2.77354e-13
4.66168e-19
-1.60615e-17
2.77336e-13
1.17682e-19
1.49802e-17
2.77351e-13
6.09559e-20
-1.49898e-17
2.77334e-13
-9.60456e-19
1.74383e-17
2.77351e-13
8.813e-19
-1.64851e-17
2.77334e-13
-1.61952e-18
1.65716e-17
2.77351e-13
2.03279e-18
-1.65491e-17
2.77336e-13
-4.42101e-19
1.54574e-17
2.77351e-13
6.7937e-19
-1.44059e-17
2.77338e-13
-5.69283e-21
1.19945e-17
2.77348e-13
4.81897e-19
-1.04861e-17
2.77338e-13
-1.5076e-18
9.71023e-18
2.77347e-13
1.68462e-18
-8.46214e-18
2.7734e-13
-1.45853e-18
6.48967e-18
2.77348e-13
8.20437e-19
-6.78599e-18
2.77338e-13
-1.46637e-18
8.22668e-18
2.77347e-13
1.3915e-18
-9.1102e-18
2.77338e-13
-9.27709e-19
8.85614e-18
2.77346e-13
6.2202e-19
-8.10554e-18
2.77338e-13
-2.45939e-18
8.35406e-18
2.77346e-13
1.8688e-18
-8.66882e-18
2.77337e-13
-3.66819e-19
8.67692e-18
2.77346e-13
-3.88761e-19
-9.21312e-18
2.77337e-13
-1.65143e-18
9.47993e-18
2.77345e-13
2.25026e-18
-9.28847e-18
2.77338e-13
1.75018e-19
7.37846e-18
2.77344e-13
-2.41557e-19
-6.37271e-18
2.77339e-13
1.27804e-19
5.07771e-18
2.77343e-13
1.03934e-20
-4.56115e-18
2.77339e-13
1.64993e-19
4.06316e-18
2.77343e-13
2.05648e-19
-3.01284e-18
8.73096e-19
5.05525e-18
2.94958e-13
2.52221e-19
6.75353e-13
2.7785e-13
-3.62579e-20
2.16102e-14
2.89399e-13
-5.50727e-19
-1.44861e-14
2.81397e-13
7.54829e-19
1.00476e-14
2.86982e-13
1.14999e-18
-7.00507e-15
2.83054e-13
-3.76127e-18
4.90344e-15
2.85842e-13
3.89239e-18
-3.47701e-15
2.83833e-13
-3.865e-18
2.49436e-15
2.85274e-13
1.05709e-18
-1.78719e-15
2.84286e-13
5.89735e-18
1.27804e-15
2.84932e-13
-9.25884e-18
-8.44287e-16
2.84557e-13
1.83911e-17
5.35044e-16
2.84754e-13
-1.83833e-17
-3.03108e-16
2.8467e-13
1.55949e-17
1.42764e-16
2.84691e-13
-1.3733e-17
-6.35939e-17
2.84696e-13
5.62263e-18
1.15032e-17
2.84679e-13
-1.99902e-18
5.8441e-19
2.84692e-13
7.94566e-19
-1.24217e-17
2.84674e-13
-2.958e-18
1.52302e-17
2.8469e-13
1.46073e-18
-1.58314e-17
2.84673e-13
-6.87807e-19
1.48786e-17
2.84688e-13
9.16981e-19
-1.49203e-17
2.84671e-13
-1.95084e-18
1.7208e-17
2.84687e-13
1.81322e-18
-1.63197e-17
2.84671e-13
-2.75411e-18
1.63686e-17
2.84687e-13
3.2985e-18
-1.6311e-17
2.84673e-13
-1.87631e-18
1.53378e-17
2.84688e-13
1.67085e-18
-1.41977e-17
2.84675e-13
-8.1308e-19
1.18778e-17
2.84685e-13
1.24972e-18
-1.03979e-17
2.84675e-13
-1.84645e-18
9.55083e-18
2.84684e-13
1.81013e-18
-8.30911e-18
2.84677e-13
-1.47661e-18
6.40108e-18
2.84685e-13
7.40433e-19
-6.69329e-18
2.84675e-13
-1.45822e-18
8.05134e-18
2.84684e-13
1.7989e-18
-8.9733e-18
2.84675e-13
-1.3972e-18
8.7384e-18
2.84683e-13
1.08874e-18
-8.03365e-18
2.84675e-13
-2.82793e-18
8.1106e-18
2.84682e-13
2.5448e-18
-8.45184e-18
2.84674e-13
-1.10299e-18
8.5703e-18
2.84683e-13
4.92932e-19
-9.13871e-18
2.84674e-13
-2.6452e-18
9.23516e-18
2.84682e-13
3.34958e-18
-9.00345e-18
2.84675e-13
-5.42524e-19
7.32486e-18
2.84681e-13
2.45646e-19
-6.31127e-18
2.84676e-13
-1.65655e-19
5.04227e-18
2.8468e-13
2.40245e-19
-4.51807e-18
2.84676e-13
-9.16961e-20
4.04037e-18
2.8468e-13
1.68113e-19
-2.95414e-18
6.21063e-19
5.05562e-18
2.94958e-13
-1.19801e-13
6.75353e-13
2.7785e-13
-4.50099e-15
2.16102e-14
2.89399e-13
2.93716e-15
-1.44862e-14
2.81396e-13
-2.04325e-15
1.00477e-14
2.86982e-13
1.42018e-15
-7.00512e-15
2.83054e-13
-9.88869e-16
4.9037e-15
2.85842e-13
6.97211e-16
-3.47713e-15
2.83833e-13
-5.02174e-16
2.49425e-15
2.85274e-13
3.65336e-16
-1.78713e-15
2.84286e-13
-2.7059e-16
1.2776e-15
2.84932e-13
1.87638e-16
-8.44485e-16
2.84557e-13
-1.20285e-16
5.35076e-16
2.84754e-13
7.18609e-17
-3.03134e-16
2.8467e-13
-3.48475e-17
1.43005e-16
2.84691e-13
1.44607e-17
-6.38003e-17
2.84696e-13
-5.8779e-18
1.18323e-17
2.84679e-13
3.22155e-18
6.81951e-19
2.84692e-13
2.30087e-19
-1.23893e-17
2.84674e-13
-3.37336e-18
1.50994e-17
2.8469e-13
2.38916e-18
-1.57377e-17
2.84673e-13
-1.52431e-18
1.49277e-17
2.84688e-13
1.72929e-18
-1.49165e-17
2.84671e-13
-2.8474e-18
1.7121e-17
2.84687e-13
2.64853e-18
-1.6253e-17
2.84671e-13
-3.71071e-18
1.62716e-17
2.84687e-13
4.35708e-18
-1.62009e-17
2.84673e-13
-3.193e-18
1.52748e-17
2.84688e-13
2.609e-18
-1.41623e-17
2.84675e-13
-1.61373e-18
1.18824e-17
2.84685e-13
1.94384e-18
-1.03658e-17
2.84675e-13
-2.09793e-18
9.50385e-18
2.84684e-13
1.84202e-18
-8.25684e-18
2.84677e-13
-1.40621e-18
6.35615e-18
2.84685e-13
6.41824e-19
-6.68782e-18
2.84675e-13
-1.40789e-18
8.02315e-18
2.84684e-13
2.10616e-18
-8.90399e-18
2.84675e-13
-1.7972e-18
8.69494e-18
2.84683e-13
1.49303e-18
-8.00069e-18
2.84675e-13
-2.99583e-18
7.95892e-18
2.84682e-13
3.01802e-18
-8.2865e-18
2.84674e-13
-1.77034e-18
8.51725e-18
2.84683e-13
1.36199e-18
-9.12458e-18
2.84674e-13
-3.43232e-18
9.05366e-18
2.84682e-13
4.17393e-18
-8.76385e-18
2.84675e-13
-1.23662e-18
7.31048e-18
2.84681e-13
7.2071e-19
-6.28769e-18
2.84676e-13
-4.56872e-19
5.03672e-18
2.8468e-13
4.65453e-19
-4.50653e-18
2.84676e-13
-3.44883e-19
4.03372e-18
2.8468e-13
1.35505e-19
-2.94375e-18
3.39669e-19
5.10055e-18
2.8784e-13
-2.34751e-13
6.7762e-13
2.70404e-13
-8.7247e-15
2.16608e-14
2.82139e-13
5.70522e-15
-1.45033e-14
2.74006e-13
-3.96947e-15
1.00607e-14
2.79683e-13
2.7577e-15
-7.01413e-15
2.75691e-13
-1.91805e-15
4.91068e-15
2.78524e-13
1.3513e-15
-3.48242e-15
2.76483e-13
-9.71842e-16
2.49801e-15
2.77948e-13
7.08236e-16
-1.78989e-15
2.76941e-13
-5.2935e-16
1.27839e-15
2.776e-13
3.71827e-16
-8.45173e-16
2.77215e-13
-2.49762e-16
5.34851e-16
2.77419e-13
1.56046e-16
-3.02581e-16
2.77332e-13
-8.2253e-17
1.42831e-16
2.77355e-13
4.09192e-17
-6.35703e-17
2.77359e-13
-1.66168e-17
1.18812e-17
2.77342e-13
7.76863e-18
1.0049e-18
2.77355e-13
-2.40102e-19
-1.2414e-17
2.77337e-13
-3.79316e-18
1.51118e-17
2.77354e-13
3.366e-18
-1.57701e-17
2.77336e-13
-2.52164e-18
1.51079e-17
2.77351e-13
2.59749e-18
-1.49875e-17
2.77334e-13
-3.76289e-18
1.7169e-17
2.7735e-13
3.49389e-18
-1.6295e-17
2.77334e-13
-4.57767e-18
1.6285e-17
2.77351e-13
5.28703e-18
-1.62116e-17
2.77336e-13
-4.40935e-18
1.52786e-17
2.77351e-13
3.60303e-18
-1.42771e-17
2.77338e-13
-2.49942e-18
1.19964e-17
2.77348e-13
2.62114e-18
-1.03895e-17
2.77338e-13
-2.37882e-18
9.55483e-18
2.77347e-13
1.90553e-18
-8.29243e-18
2.7734e-13
-1.35625e-18
6.35793e-18
2.77348e-13
6.58282e-19
-6.76167e-18
2.77338e-13
-1.47042e-18
8.12041e-18
2.77347e-13
2.38848e-18
-8.90135e-18
2.77338e-13
-2.19465e-18
8.72079e-18
2.77346e-13
1.88832e-18
-8.01407e-18
2.77338e-13
-3.06744e-18
7.9039e-18
2.77346e-13
3.33889e-18
-8.18481e-18
2.77337e-13
-2.39785e-18
8.52075e-18
2.77346e-13
2.22789e-18
-9.16907e-18
2.77337e-13
-4.03747e-18
8.95127e-18
2.77345e-13
4.72962e-18
-8.58905e-18
2.77338e-13
-1.91501e-18
7.34097e-18
2.77344e-13
1.20831e-18
-6.30539e-18
2.77339e-13
-7.77698e-19
5.06293e-18
2.77343e-13
7.18622e-19
-4.52602e-18
2.77339e-13
-6.08254e-19
4.04463e-18
2.77343e-13
1.64988e-19
-2.97578e-18
2.52745e-21
5.17923e-18
2.73057e-13
-3.38347e-13
6.81049e-13
2.54954e-13
-1.23127e-14
2.16923e-14
2.67077e-13
8.08388e-15
-1.45019e-14
2.58671e-13
-5.62636e-15
1.00642e-14
2.64536e-13
3.90992e-15
-7.01779e-15
2.60414e-13
-2.72137e-15
4.9159e-15
2.63339e-13
1.91766e-15
-3.48716e-15
2.61231e-13
-1.37826e-15
2.50177e-15
2.62746e-13
1.00358e-15
-1.79208e-15
2.617e-13
-7.47973e-16
1.27668e-15
2.62387e-13
5.26337e-16
-8.43354e-16
2.61982e-13
-3.56798e-16
5.31907e-16
2.62199e-13
2.24862e-16
-2.99775e-16
2.62104e-13
-1.21273e-16
1.41368e-16
2.62132e-13
6.23214e-17
-6.23966e-17
2.62134e-13
-2.53789e-17
1.17363e-17
2.62118e-13
1.10192e-17
1.42425e-18
2.62131e-13
-4.12917e-19
-1.25044e-17
2.62113e-13
-4.21647e-18
1.50851e-17
2.6213e-13
4.35093e-18
-1.57687e-17
2.62112e-13
-3.65115e-18
1.52459e-17
2.62127e-13
3.68484e-18
-1.52088e-17
2.6211e-13
-4.76608e-18
1.72893e-17
2.62127e-13
4.49935e-18
-1.64858e-17
2.6211e-13
-5.46775e-18
1.64228e-17
2.62127e-13
6.13487e-18
-1.62919e-17
2.62112e-13
-5.59057e-18
1.53947e-17
2.62127e-13
4.57385e-18
-1.43331e-17
2.62114e-13
-3.42031e-18
1.20705e-17
2.62124e-13
3.31391e-18
-1.04532e-17
2.62114e-13
-2.69621e-18
9.59036e-18
2.62123e-13
2.03748e-18
-8.32858e-18
2.62116e-13
-1.44605e-18
6.43428e-18
2.62124e-13
8.31791e-19
-6.82799e-18
2.62114e-13
-1.62225e-18
8.15058e-18
2.62123e-13
2.69029e-18
-8.93094e-18
2.62114e-13
-2.61343e-18
8.76549e-18
2.62122e-13
2.34445e-18
-8.09448e-18
2.62114e-13
-3.10609e-18
7.89807e-18
2.62122e-13
3.56401e-18
-8.15371e-18
2.62113e-13
-3.02313e-18
8.58806e-18
2.62123e-13
3.08544e-18
-9.24847e-18
2.62113e-13
-4.44386e-18
8.87389e-18
2.62122e-13
5.00391e-18
-8.45179e-18
2.62114e-13
-2.60131e-18
7.42623e-18
2.6212e-13
1.74059e-18
-6.37305e-18
2.62115e-13
-1.17046e-18
5.13513e-18
2.6212e-13
1.02235e-18
-4.56895e-18
2.62116e-13
-9.01962e-19
4.08033e-18
2.62119e-13
2.7621e-19
-3.01248e-18
-2.9771e-19
5.1989e-18
2.49366e-13
-4.19146e-13
6.81943e-13
2.30231e-13
-1.4693e-14
2.15171e-14
2.42978e-13
9.71205e-15
-1.43751e-14
2.34131e-13
-6.76405e-15
9.986e-15
2.40302e-13
4.70483e-15
-6.96627e-15
2.35968e-13
-3.28099e-15
4.88415e-15
2.39041e-13
2.3135e-15
-3.46539e-15
2.36828e-13
-1.66133e-15
2.48509e-15
2.3842e-13
1.20566e-15
-1.77724e-15
2.37314e-13
-8.88898e-16
1.25914e-15
2.38045e-13
6.22591e-16
-8.29205e-16
2.37608e-13
-4.19631e-16
5.19311e-16
2.37847e-13
2.63223e-16
-2.90403e-16
2.37739e-13
-1.4299e-16
1.36353e-16
2.37774e-13
7.32955e-17
-5.89871e-17
2.37773e-13
-2.98725e-17
1.08375e-17
2.37759e-13
1.17898e-17
2.34073e-18
2.37771e-13
2.08057e-19
-1.28788e-17
2.37754e-13
-4.83034e-18
1.51639e-17
2.3777e-13
5.45672e-18
-1.58907e-17
2.37753e-13
-5.01588e-18
1.54926e-17
2.37768e-13
5.26541e-18
-1.57317e-17
2.3775e-13
-6.05067e-18
1.75843e-17
2.37767e-13
5.9289e-18
-1.69489e-17
2.37751e-13
-6.65042e-18
1.68376e-17
2.37767e-13
7.11042e-18
-1.65877e-17
2.37752e-13
-6.87344e-18
1.57016e-17
2.37768e-13
5.53301e-18
-1.4413e-17
2.37754e-13
-4.43222e-18
1.22308e-17
2.37765e-13
4.16492e-18
-1.06967e-17
2.37755e-13
-3.19377e-18
9.7545e-18
2.37763e-13
2.4302e-18
-8.53246e-18
2.37756e-13
-1.93395e-18
6.77321e-18
2.37764e-13
1.35813e-18
-7.07498e-18
2.37754e-13
-1.97555e-18
8.25042e-18
2.37764e-13
3.16409e-18
-9.10101e-18
2.37754e-13
-3.16494e-18
8.91566e-18
2.37763e-13
3.00348e-18
-8.33342e-18
2.37754e-13
-3.32841e-18
8.0961e-18
2.37762e-13
3.89723e-18
-8.34449e-18
2.37754e-13
-3.73086e-18
8.77133e-18
2.37763e-13
3.94281e-18
-9.37135e-18
2.37754e-13
-4.74185e-18
8.91524e-18
2.37762e-13
5.10861e-18
-8.46043e-18
2.37754e-13
-3.31724e-18
7.56399e-18
2.37761e-13
2.36705e-18
-6.51178e-18
2.37755e-13
-1.70765e-18
5.2956e-18
2.3776e-13
1.43527e-18
-4.67904e-18
2.37756e-13
-1.29017e-18
4.18791e-18
2.37759e-13
5.42803e-19
-3.11225e-18
-4.27716e-19
5.1809e-18
2.144e-13
-4.5374e-13
6.70703e-13
1.93815e-13
-1.48025e-14
2.06955e-14
2.07488e-13
9.88151e-15
-1.38427e-14
1.97983e-13
-6.88745e-15
9.62969e-15
2.04612e-13
4.79708e-15
-6.72056e-15
1.99962e-13
-3.35165e-15
4.71189e-15
2.03255e-13
2.36364e-15
-3.34065e-15
2.00886e-13
-1.691e-15
2.38768e-15
2.02591e-13
1.21777e-15
-1.7001e-15
2.01398e-13
-8.80063e-16
1.19503e-15
2.02194e-13
6.08687e-16
-7.82714e-16
2.01708e-13
-4.02115e-16
4.85886e-16
2.0198e-13
2.474e-16
-2.68669e-16
2.01852e-13
-1.33624e-16
1.2545e-16
2.01899e-13
6.60155e-17
-5.25889e-17
2.01892e-13
-2.57423e-17
8.2619e-18
2.01881e-13
7.69704e-18
4.3623e-18
2.01892e-13
2.17904e-18
-1.34226e-17
2.01876e-13
-6.38099e-18
1.57503e-17
2.01892e-13
7.24666e-18
-1.654e-17
2.01875e-13
-7.20939e-18
1.6299e-17
2.0189e-13
7.26486e-18
-1.6256e-17
2.01873e-13
-7.89093e-18
1.80792e-17
2.01889e-13
7.8152e-18
-1.74466e-17
2.01873e-13
-8.20616e-18
1.73259e-17
2.01889e-13
8.39765e-18
-1.70329e-17
2.01874e-13
-8.04513e-18
1.58476e-17
2.0189e-13
7.03234e-18
-1.50025e-17
2.01876e-13
-5.99345e-18
1.28641e-17
2.01887e-13
5.3105e-18
-1.11494e-17
2.01877e-13
-4.39668e-18
1.04241e-17
2.01885e-13
3.60178e-18
-9.24272e-18
2.01878e-13
-3.10127e-18
7.46554e-18
2.01886e-13
2.833e-18
-7.92948e-18
2.01877e-13
-3.33975e-18
9.08539e-18
2.01886e-13
4.07628e-18
-9.51219e-18
2.01877e-13
-4.12913e-18
9.32251e-18
2.01885e-13
3.95196e-18
-8.69144e-18
2.01877e-13
-4.13e-18
8.6734e-18
2.01885e-13
4.4767e-18
-8.70283e-18
2.01876e-13
-4.46506e-18
8.93165e-18
2.01886e-13
4.70811e-18
-9.40744e-18
2.01876e-13
-5.15772e-18
9.1764e-18
2.01885e-13
5.19861e-18
-8.63356e-18
2.01877e-13
-3.91904e-18
7.5737e-18
2.01883e-13
3.02924e-18
-6.61725e-18
2.01878e-13
-2.38402e-18
5.47822e-18
2.01882e-13
2.03822e-18
-4.87837e-18
2.01878e-13
-1.78639e-18
4.30901e-18
2.01882e-13
1.16324e-18
-3.40983e-18
-8.73115e-19
5.37308e-18
1.6342e-13
-3.83966e-13
6.17316e-13
1.40863e-13
-1.03641e-14
1.81204e-14
1.55905e-13
6.99953e-15
-1.21602e-14
1.45429e-13
-4.88112e-15
8.47087e-15
1.52733e-13
3.40498e-15
-5.91191e-15
1.47615e-13
-2.38599e-15
4.14395e-15
1.51233e-13
1.68507e-15
-2.9368e-15
1.48639e-13
-1.20384e-15
2.09578e-15
1.50503e-13
8.61008e-16
-1.49026e-15
1.49191e-13
-6.02938e-16
1.04589e-15
1.50076e-13
4.06893e-16
-6.84599e-16
1.49522e-13
-2.55354e-16
4.2527e-16
1.49844e-13
1.4899e-16
-2.35505e-16
1.49682e-13
-7.64353e-17
1.10679e-16
1.4975e-13
3.25632e-17
-4.65609e-17
1.49731e-13
-9.6454e-18
7.34803e-18
1.49726e-13
-1.37777e-18
3.77121e-18
1.49736e-13
4.16752e-18
-1.18984e-17
1.4972e-13
-7.28491e-18
1.41532e-17
1.49736e-13
7.65083e-18
-1.49643e-17
1.49719e-13
-7.94037e-18
1.46355e-17
1.49735e-13
7.34566e-18
-1.45975e-17
1.49718e-13
-7.9949e-18
1.60993e-17
1.49734e-13
7.88372e-18
-1.56458e-17
1.49718e-13
-7.82948e-18
1.54499e-17
1.49734e-13
7.80296e-18
-1.51533e-17
1.49719e-13
-7.24573e-18
1.41736e-17
1.49734e-13
7.2307e-18
-1.35639e-17
1.49721e-13
-6.40107e-18
1.17212e-17
1.49732e-13
5.19555e-18
-1.01709e-17
1.49722e-13
-4.77383e-18
9.50674e-18
1.4973e-13
4.09604e-18
-8.49285e-18
1.49723e-13
-3.54842e-18
6.9317e-18
1.49731e-13
3.87468e-18
-7.42268e-18
1.49722e-13
-4.43206e-18
8.47142e-18
1.49731e-13
4.314e-18
-8.749e-18
1.49722e-13
-4.28571e-18
8.44179e-18
1.4973e-13
4.05097e-18
-7.95417e-18
1.49722e-13
-4.18663e-18
7.88781e-18
1.4973e-13
4.04898e-18
-7.85047e-18
1.49721e-13
-4.12346e-18
8.02462e-18
1.49731e-13
4.43594e-18
-8.42797e-18
1.49721e-13
-4.65383e-18
8.30898e-18
1.4973e-13
4.24781e-18
-7.74323e-18
1.49722e-13
-3.54226e-18
6.70353e-18
1.49728e-13
2.86793e-18
-5.89926e-18
1.49723e-13
-2.41734e-18
4.92928e-18
1.49728e-13
2.13396e-18
-4.38261e-18
1.49724e-13
-1.79809e-18
3.83735e-18
1.49727e-13
1.51565e-18
-3.13784e-18
-6.95056e-19
5.14109e-18
8.2578e-14
3.83966e-13
6.18499e-14
1.03642e-14
7.58493e-14
-6.99982e-15
6.60875e-14
4.88084e-15
7.2896e-14
-3.40347e-15
6.81257e-14
2.38264e-15
7.14949e-14
-1.68353e-15
6.90886e-14
1.20034e-15
7.08095e-14
-8.56775e-16
6.95998e-14
6.08887e-16
7.04167e-14
-4.10251e-16
6.99003e-14
2.64532e-16
7.02033e-14
-1.56318e-16
7.00467e-14
8.12687e-17
7.01157e-14
-3.87711e-17
7.00939e-14
1.30727e-17
7.0093e-14
-2.38999e-18
7.01012e-14
-4.10649e-18
7.00877e-14
5.77058e-18
7.01022e-14
-6.5552e-18
7.00871e-14
6.60854e-18
7.01014e-14
-6.88273e-18
7.0086e-14
7.22896e-18
7.01013e-14
-7.16623e-18
7.00862e-14
7.17197e-18
7.01012e-14
-7.0664e-18
7.0087e-14
6.88058e-18
7.01006e-14
-6.0932e-18
7.00885e-14
5.31192e-18
7.00986e-14
-4.8085e-18
7.00896e-14
4.1557e-18
7.00974e-14
-3.65135e-18
7.00905e-14
3.18165e-18
7.00977e-14
-3.08047e-18
7.00896e-14
3.35967e-18
7.00978e-14
-3.80065e-18
7.00896e-14
3.80199e-18
7.00974e-14
-3.66016e-18
7.00897e-14
3.43878e-18
7.00974e-14
-3.62828e-18
7.00893e-14
3.86641e-18
7.00979e-14
-3.99653e-18
7.00894e-14
3.70246e-18
7.00972e-14
-3.58352e-18
7.00902e-14
3.3466e-18
7.0096e-14
-2.86321e-18
7.00911e-14
2.37571e-18
7.00954e-14
-2.06565e-18
7.00917e-14
1.87531e-18
7.00946e-14
-1.40042e-18
1.79838e-18
1.6342e-13
6.17316e-13
4.5374e-13
1.40863e-13
1.81203e-14
1.48027e-14
1.55905e-13
-1.21603e-14
-9.88123e-15
1.4543e-13
8.46972e-15
6.88763e-15
1.52733e-13
-5.91099e-15
-4.79624e-15
1.47615e-13
4.14268e-15
3.34651e-15
1.51234e-13
-2.9367e-15
-2.35954e-15
1.48638e-13
2.09716e-15
1.68544e-15
1.50504e-13
-1.49133e-15
-1.21307e-15
1.4919e-13
1.04628e-15
8.88873e-16
1.50076e-13
-6.81221e-16
-6.1642e-16
1.49522e-13
4.21995e-16
4.19794e-16
1.49844e-13
-2.33013e-16
-2.63228e-16
1.49683e-13
1.07448e-16
1.4579e-16
1.4975e-13
-4.43441e-17
-7.7443e-17
1.49731e-13
4.36235e-18
3.07488e-17
1.49727e-13
4.46294e-18
-1.24991e-17
1.49736e-13
-1.21659e-17
-1.62017e-18
1.4972e-13
1.57545e-17
3.56045e-18
1.49736e-13
-1.61029e-17
-5.63789e-18
1.4972e-13
1.49924e-17
5.42811e-18
1.49735e-13
-1.4904e-17
-6.20815e-18
1.49718e-13
1.71565e-17
6.25441e-18
1.49734e-13
-1.62557e-17
-6.46451e-18
1.49718e-13
1.56229e-17
6.92361e-18
1.49734e-13
-1.5451e-17
-6.77797e-18
1.49719e-13
1.46626e-17
6.80328e-18
1.49734e-13
-1.43974e-17
-5.10068e-18
1.49721e-13
1.20259e-17
4.64067e-18
1.49732e-13
-1.05818e-17
-4.24897e-18
1.49722e-13
1.03907e-17
2.72122e-18
1.4973e-13
-9.37888e-18
-2.07415e-18
1.49723e-13
7.49391e-18
1.88399e-18
1.49731e-13
-7.71412e-18
-1.78085e-18
1.49722e-13
9.2907e-18
1.54406e-18
1.49731e-13
-9.63994e-18
-2.58398e-18
1.49722e-13
9.06252e-18
2.89541e-18
1.4973e-13
-8.30897e-18
-3.04566e-18
1.49722e-13
8.06037e-18
3.18141e-18
1.4973e-13
-7.88065e-18
-4.06023e-18
1.49721e-13
8.31748e-18
3.87345e-18
1.49731e-13
-8.80775e-18
-3.96686e-18
1.49721e-13
8.12334e-18
4.71696e-18
1.4973e-13
-7.65721e-18
-4.87493e-18
1.49722e-13
6.9119e-18
3.40842e-18
1.49728e-13
-6.26049e-18
-2.74916e-18
1.49723e-13
5.16756e-18
2.09432e-18
1.49728e-13
-4.76654e-18
-1.62408e-18
1.49724e-13
4.06854e-18
1.58566e-18
1.49727e-13
-3.66437e-18
-6.61187e-19
5.11365e-18
1.47692e-18
3.69266e-13
8.57937e-13
8.57937e-13
3.47088e-13
2.9211e-14
2.9211e-14
3.61409e-13
-1.93211e-14
-1.93209e-14
3.51482e-13
1.34352e-14
1.34353e-14
3.58367e-13
-9.35363e-15
-9.3537e-15
3.53592e-13
6.51479e-15
6.51527e-15
3.56909e-13
-4.58749e-15
-4.58818e-15
3.54542e-13
3.26233e-15
3.26293e-15
3.5629e-13
-2.34012e-15
-2.34122e-15
3.54976e-13
1.72185e-15
1.72241e-15
3.55991e-13
-1.19027e-15
-1.19326e-15
3.55256e-13
8.22263e-16
8.21927e-16
3.55785e-13
-5.23851e-16
-5.22921e-16
3.55444e-13
2.94502e-16
2.92814e-16
3.55628e-13
-1.59272e-16
-1.59095e-16
3.55526e-13
6.10497e-17
6.28206e-17
3.55564e-13
-2.94006e-17
-2.914e-17
3.55544e-13
-2.72613e-18
-2.54636e-18
3.5555e-13
9.75648e-18
9.02726e-18
3.55547e-13
-1.36567e-17
-1.27371e-17
3.55547e-13
1.05113e-17
1.07692e-17
3.55546e-13
-1.27859e-17
-1.26067e-17
3.5555e-13
1.38734e-17
1.33056e-17
3.55547e-13
-1.34727e-17
-1.33482e-17
3.5555e-13
1.23664e-17
1.28883e-17
3.55548e-13
-1.23344e-17
-1.26575e-17
3.55547e-13
1.40872e-17
1.38025e-17
3.55547e-13
-1.14735e-17
-1.13271e-17
3.55546e-13
9.34574e-18
9.66229e-18
3.55546e-13
-9.66563e-18
-9.55349e-18
3.55549e-13
7.62626e-18
7.31046e-18
3.55545e-13
-6.63947e-18
-6.27599e-18
3.55547e-13
5.66601e-18
5.15642e-18
3.55544e-13
-4.33391e-18
-4.5181e-18
3.55548e-13
5.18584e-18
5.12784e-18
3.55545e-13
-7.62682e-18
-7.15213e-18
3.55546e-13
7.20122e-18
6.78745e-18
3.55546e-13
-7.00857e-18
-6.98255e-18
3.55548e-13
5.60342e-18
6.03133e-18
3.55547e-13
-6.96634e-18
-7.23263e-18
3.55546e-13
8.13581e-18
7.93894e-18
3.55547e-13
-8.31654e-18
-8.27593e-18
3.55547e-13
7.00306e-18
8.10137e-18
3.55547e-13
-7.62382e-18
-8.11399e-18
3.55545e-13
6.84668e-18
6.62851e-18
3.55545e-13
-6.34263e-18
-5.79133e-18
3.55545e-13
4.83381e-18
4.52243e-18
3.55544e-13
-4.29418e-18
-3.74768e-18
3.55545e-13
3.76396e-18
3.35016e-18
3.55544e-13
-3.06452e-18
-2.51244e-18
5.30087e-18
4.23879e-18
5.11261e-13
8.64007e-13
1.00388e-12
4.9459e-13
3.11926e-14
3.53887e-14
5.05084e-13
-2.0384e-14
-2.32747e-14
4.97856e-13
1.41518e-14
1.61435e-14
5.02863e-13
-9.84392e-15
-1.12364e-14
4.9939e-13
6.84306e-15
7.8258e-15
5.01803e-13
-4.81406e-15
-5.51271e-15
5.00064e-13
3.42682e-15