/*--------------------------------*- C++ -*----------------------------------*\
  =========                 |
  \\      /  F ield         | OpenFOAM: The Open Source CFD Toolbox
   \\    /   O peration     | Website:  https://openfoam.org
    \\  /    A nd           | Version:  13
     \\/     M anipulation  |
\*---------------------------------------------------------------------------*/
FoamFile
{
    format      ascii;
    class       volVectorField;
    location    "29";
    object      U;
}
// * * * * * * * * * * * * * * * * * * * * * * * * * * * * * * * * * * * * * //

dimensions      [0 1 -1 0 0 0 0];

internalField   nonuniform List<vector> 
9996
(
(0.00118895 7.82473e-05 7.82473e-05)
(0.0015228 2.23809e-06 2.2381e-06)
(0.00127122 -1.53891e-06 -1.53887e-06)
(0.00144542 1.0726e-06 1.0726e-06)
(0.00132414 -7.48319e-07 -7.48385e-07)
(0.00140839 5.23592e-07 5.23575e-07)
(0.00134986 -3.68919e-07 -3.68873e-07)
(0.00139073 2.61447e-07 2.61379e-07)
(0.00136163 -1.85452e-07 -1.85415e-07)
(0.00138285 1.30594e-07 1.30577e-07)
(0.00136721 -8.85339e-08 -8.85607e-08)
(0.00137856 5.75181e-08 5.7544e-08)
(0.00137074 -3.45908e-08 -3.45651e-08)
(0.00137583 1.88369e-08 1.8838e-08)
(0.00137284 -9.16446e-09 -9.08817e-09)
(0.00137443 3.35447e-09 3.31763e-09)
(0.00137368 -5.77141e-10 -6.03072e-10)
(0.00137396 -8.26841e-10 -8.27087e-10)
(0.00137383 1.22089e-09 1.24011e-09)
(0.00137386 -1.48097e-09 -1.49735e-09)
(0.00137386 1.55295e-09 1.54314e-09)
(0.00137384 -1.56781e-09 -1.56422e-09)
(0.00137384 1.54921e-09 1.56168e-09)
(0.00137383 -1.55457e-09 -1.569e-09)
(0.00137385 1.56457e-09 1.58654e-09)
(0.00137382 -1.52476e-09 -1.5502e-09)
(0.00137386 1.47237e-09 1.47779e-09)
(0.00137382 -1.36986e-09 -1.3732e-09)
(0.00137387 1.25097e-09 1.24946e-09)
(0.00137382 -1.09978e-09 -1.0992e-09)
(0.00137386 9.32245e-10 9.34535e-10)
(0.00137382 -8.25336e-10 -8.27128e-10)
(0.00137385 7.72715e-10 7.74168e-10)
(0.00137384 -7.87347e-10 -7.88405e-10)
(0.00137384 8.00234e-10 8.01832e-10)
(0.00137383 -8.14178e-10 -8.14652e-10)
(0.00137385 8.30292e-10 8.31536e-10)
(0.00137382 -8.13293e-10 -8.13238e-10)
(0.00137384 7.8419e-10 8.20301e-10)
(0.00137382 -8.0167e-10 -8.38049e-10)
(0.00137384 8.24307e-10 8.34198e-10)
(0.00137383 -8.54452e-10 -8.5253e-10)
(0.00137385 8.22805e-10 8.71818e-10)
(0.00137382 -7.63227e-10 -8.21088e-10)
(0.00137385 6.98819e-10 7.00651e-10)
(0.00137381 -6.0424e-10 -6.00277e-10)
(0.00137384 5.12846e-10 5.08129e-10)
(0.00137382 -4.40336e-10 -4.33853e-10)
(0.00137384 3.93852e-10 3.87217e-10)
(0.00137382 -3.24277e-10 -3.15255e-10)
(0.00137384 3.37194e-10 3.32113e-10)
(0.002529 0.000159762 0.00012711)
(0.00324791 4.72358e-06 4.06473e-06)
(0.00271678 -3.16471e-06 -2.78743e-06)
(0.00308666 2.20695e-06 1.94493e-06)
(0.00282889 -1.53793e-06 -1.35734e-06)
(0.00300833 1.07486e-06 9.44592e-07)
(0.00288329 -7.58571e-07 -6.60312e-07)
(0.00297087 5.41268e-07 4.57702e-07)
(0.00290852 -3.87582e-07 -3.16463e-07)
(0.00295372 2.78743e-07 2.18261e-07)
(0.00292083 -1.89957e-07 -1.44632e-07)
(0.00294434 1.25429e-07 9.34144e-08)
(0.0029284 -7.63604e-08 -5.51002e-08)
(0.0029386 4.08043e-08 3.0163e-08)
(0.00293267 -2.05501e-08 -1.41494e-08)
(0.00293578 7.23026e-09 4.01879e-09)
(0.00293434 -1.97832e-09 5.36374e-10)
(0.00293486 -1.35799e-09 -3.01193e-09)
(0.00293463 2.12028e-09 3.7352e-09)
(0.00293467 -2.61971e-09 -4.16053e-09)
(0.00293469 2.61948e-09 4.15112e-09)
(0.00293464 -2.69672e-09 -3.90627e-09)
(0.00293465 2.78015e-09 3.86837e-09)
(0.00293461 -2.75802e-09 -3.6693e-09)
(0.00293466 2.73324e-09 3.62305e-09)
(0.0029346 -2.67834e-09 -3.57578e-09)
(0.00293467 2.72476e-09 3.34068e-09)
(0.00293461 -2.38347e-09 -3.616e-09)
(0.0029347 2.13301e-09 3.29572e-09)
(0.0029346 -1.87972e-09 -2.98054e-09)
(0.00293467 1.49661e-09 2.89659e-09)
(0.0029346 -1.26734e-09 -2.7274e-09)
(0.00293466 1.12664e-09 2.51128e-09)
(0.00293464 -1.14203e-09 -2.54325e-09)
(0.00293465 1.20103e-09 2.63014e-09)
(0.00293461 -1.40014e-09 -2.29437e-09)
(0.00293467 1.42619e-09 2.26426e-09)
(0.00293459 -1.39962e-09 -2.08482e-09)
(0.00293466 1.23408e-09 2.00983e-09)
(0.0029346 -1.386e-09 -1.78809e-09)
(0.00293464 1.51388e-09 1.8166e-09)
(0.00293461 -1.61845e-09 -1.89975e-09)
(0.00293465 1.50476e-09 1.58373e-09)
(0.00293459 -1.44482e-09 -1.35393e-09)
(0.00293466 1.33085e-09 1.44169e-09)
(0.00293459 -1.13272e-09 -1.36408e-09)
(0.00293464 9.18151e-10 1.22184e-09)
(0.0029346 -7.87109e-10 -1.15066e-09)
(0.00293464 7.19195e-10 1.0476e-09)
(0.0029346 -5.04165e-10 -1.08833e-09)
(0.00293464 6.42638e-10 1.35309e-09)
(0.00340051 0.000164266 0.00012947)
(0.00437562 5.54555e-06 4.45714e-06)
(0.00366444 -3.68184e-06 -3.05658e-06)
(0.00416101 2.56519e-06 2.13401e-06)
(0.00381471 -1.78495e-06 -1.48995e-06)
(0.00405612 1.24449e-06 1.03706e-06)
(0.00388752 -8.77805e-07 -7.24134e-07)
(0.00400589 6.28832e-07 5.0045e-07)
(0.00392157 -4.54811e-07 -3.44433e-07)
(0.00398251 3.36873e-07 2.37464e-07)
(0.00393857 -2.35359e-07 -1.57576e-07)
(0.0039696 1.62591e-07 1.02775e-07)
(0.00394884 -1.03583e-07 -6.13074e-08)
(0.00396191 5.77296e-08 3.41646e-08)
(0.00395442 -3.17477e-08 -1.65985e-08)
(0.00395828 1.26524e-08 5.34727e-09)
(0.00395653 -5.2676e-09 -2.84862e-11)
(0.00395714 -1.80211e-10 -3.20543e-09)
(0.00395689 7.57327e-10 3.61247e-09)
(0.00395692 -1.66089e-09 -4.27182e-09)
(0.00395695 1.68441e-09 4.28011e-09)
(0.00395687 -1.9002e-09 -4.29438e-09)
(0.0039569 1.78719e-09 4.00397e-09)
(0.00395683 -1.84743e-09 -3.95141e-09)
(0.00395691 1.89091e-09 3.87142e-09)
(0.00395682 -1.82363e-09 -3.71916e-09)
(0.00395693 2.14008e-09 3.62281e-09)
(0.00395684 -1.51407e-09 -3.58238e-09)
(0.00395696 1.44182e-09 3.38769e-09)
(0.00395683 -1.26213e-09 -3.1969e-09)
(0.00395692 5.79901e-10 2.93705e-09)
(0.00395683 -3.36062e-10 -2.78882e-09)
(0.00395691 3.28872e-10 2.72956e-09)
(0.00395688 -3.56183e-10 -2.66202e-09)
(0.00395691 2.25852e-10 2.54512e-09)
(0.00395683 -6.3516e-10 -2.37023e-09)
(0.00395693 7.75796e-10 2.33264e-09)
(0.00395681 -8.64451e-10 -2.2501e-09)
(0.00395691 5.50614e-10 2.05392e-09)
(0.00395681 -9.54555e-10 -1.93667e-09)
(0.00395689 1.16492e-09 1.94547e-09)
(0.00395683 -1.32029e-09 -1.95101e-09)
(0.0039569 1.20192e-09 1.6132e-09)
(0.00395682 -1.20369e-09 -1.43045e-09)
(0.0039569 1.11805e-09 1.5391e-09)
(0.00395682 -9.03557e-10 -1.48033e-09)
(0.00395688 6.66057e-10 1.3412e-09)
(0.00395683 -5.04907e-10 -1.23783e-09)
(0.00395688 5.14292e-10 1.15104e-09)
(0.00395683 -1.43778e-10 -1.10067e-09)
(0.00395688 5.33476e-10 1.47521e-09)
(0.00399689 0.000138889 0.000126604)
(0.00515044 4.99148e-06 4.50208e-06)
(0.00431689 -3.28581e-06 -3.0891e-06)
(0.0048997 2.28735e-06 2.15699e-06)
(0.00449303 -1.58931e-06 -1.50665e-06)
(0.00477685 1.10485e-06 1.05001e-06)
(0.00457827 -7.78454e-07 -7.34101e-07)
(0.00471794 5.58624e-07 5.08465e-07)
(0.00461844 -4.06956e-07 -3.50683e-07)
(0.00469015 3.0755e-07 2.42115e-07)
(0.00463882 -2.18142e-07 -1.61226e-07)
(0.00467473 1.54812e-07 1.05371e-07)
(0.00465097 -1.01008e-07 -6.30299e-08)
(0.00466573 5.73127e-08 3.5349e-08)
(0.00465737 -3.27468e-08 -1.73525e-08)
(0.00466162 1.3238e-08 6.00423e-09)
(0.00465972 -5.95567e-09 -4.52308e-10)
(0.00466036 4.67354e-10 -2.97062e-09)
(0.0046601 3.13219e-11 3.24624e-09)
(0.00466011 -9.52606e-10 -3.99898e-09)
(0.00466017 9.69193e-10 4.05391e-09)
(0.00466006 -1.02871e-09 -4.18566e-09)
(0.00466012 9.02654e-10 3.8293e-09)
(0.00466002 -8.99446e-10 -3.8531e-09)
(0.00466013 8.97444e-10 3.79465e-09)
(0.00466002 -8.66842e-10 -3.61163e-09)
(0.00466014 1.32297e-09 3.53975e-09)
(0.00466004 -8.77579e-10 -3.34468e-09)
(0.00466018 8.79472e-10 3.2039e-09)
(0.00466003 -6.88556e-10 -3.04472e-09)
(0.00466013 4.96648e-11 2.7008e-09)
(0.00466002 1.74244e-10 -2.55729e-09)
(0.00466013 -1.97008e-10 2.56875e-09)
(0.00466007 9.34075e-11 -2.48472e-09)
(0.00466013 -2.19009e-10 2.29184e-09)
(0.00466002 -1.14295e-10 -2.20199e-09)
(0.00466015 2.93985e-10 2.19042e-09)
(0.00466 -3.78469e-10 -2.15495e-09)
(0.00466013 -7.23206e-11 1.97445e-09)
(0.00466 -3.32076e-10 -1.93086e-09)
(0.00466011 6.91722e-10 1.91511e-09)
(0.00466002 -9.50765e-10 -1.86511e-09)
(0.00466011 6.29951e-10 1.60911e-09)
(0.00466001 -5.76708e-10 -1.47776e-09)
(0.0046601 7.62239e-10 1.52102e-09)
(0.00466001 -5.93138e-10 -1.45646e-09)
(0.00466008 3.8797e-10 1.31483e-09)
(0.00466003 -2.69449e-10 -1.18918e-09)
(0.00466008 3.14801e-10 1.10708e-09)
(0.00466003 2.24479e-11 -1.00046e-09)
(0.00466008 4.85872e-10 1.37874e-09)
(0.00440022 0.000103953 0.000124116)
(0.0056761 3.84246e-06 4.49061e-06)
(0.00476021 -2.51509e-06 -3.08504e-06)
(0.00540104 1.75003e-06 2.15359e-06)
(0.00495368 -1.21472e-06 -1.50405e-06)
(0.00526617 8.42511e-07 1.04803e-06)
(0.00504722 -5.92776e-07 -7.32892e-07)
(0.00520143 4.25277e-07 5.07959e-07)
(0.00509158 -3.10842e-07 -3.50877e-07)
(0.00517056 2.37638e-07 2.42814e-07)
(0.00511436 -1.7012e-07 -1.62122e-07)
(0.0051534 1.23105e-07 1.06161e-07)
(0.00512779 -8.16453e-08 -6.35687e-08)
(0.00514354 4.70331e-08 3.57088e-08)
(0.00513468 -2.76447e-08 -1.75486e-08)
(0.00513914 1.11783e-08 6.11647e-09)
(0.00513716 -5.04538e-09 -5.51632e-10)
(0.0051378 5.79822e-10 -2.87295e-09)
(0.00513756 -3.62895e-10 3.23789e-09)
(0.00513755 -4.87361e-10 -3.96733e-09)
(0.00513763 5.61028e-10 4.01349e-09)
(0.0051375 -5.13363e-10 -4.0894e-09)
(0.00513758 3.22896e-10 3.8092e-09)
(0.00513746 -3.00566e-10 -3.79273e-09)
(0.00513759 1.93179e-10 3.77505e-09)
(0.00513746 -1.37607e-10 -3.62933e-09)
(0.0051376 6.78823e-10 3.47799e-09)
(0.00513749 -4.17143e-10 -3.35452e-09)
(0.00513763 5.10684e-10 3.17889e-09)
(0.00513748 -3.15731e-10 -2.99131e-09)
(0.00513758 -2.1864e-10 2.69235e-09)
(0.00513747 3.90651e-10 -2.54303e-09)
(0.00513758 -3.96714e-10 2.50812e-09)
(0.00513752 2.2979e-10 -2.44686e-09)
(0.00513759 -3.79935e-10 2.29472e-09)
(0.00513745 1.74277e-10 -2.16836e-09)
(0.00513761 7.44124e-12 2.17088e-09)
(0.00513743 -9.10552e-11 -2.10097e-09)
(0.0051376 -4.88852e-10 2.00938e-09)
(0.00513743 1.55951e-10 -1.95502e-09)
(0.00513757 3.20164e-10 1.90451e-09)
(0.00513746 -6.28435e-10 -1.83531e-09)
(0.00513757 8.4359e-11 1.65425e-09)
(0.00513745 5.07609e-11 -1.54642e-09)
(0.00513755 4.61707e-10 1.5048e-09)
(0.00513746 -3.65044e-10 -1.44144e-09)
(0.00513753 2.2054e-10 1.29415e-09)
(0.00513748 -1.40057e-10 -1.17372e-09)
(0.00513752 2.01563e-10 1.08302e-09)
(0.00513748 5.80065e-11 -9.91221e-10)
(0.00513753 4.52837e-10 1.37633e-09)
(0.00465158 6.41139e-05 0.000122347)
(0.00600446 2.40423e-06 4.47296e-06)
(0.00503742 -1.56911e-06 -3.07733e-06)
(0.00571426 1.09172e-06 2.14797e-06)
(0.0052416 -7.57331e-07 -1.49976e-06)
(0.00557198 5.24554e-07 1.04453e-06)
(0.00534029 -3.68696e-07 -7.3024e-07)
(0.00550361 2.64452e-07 5.05999e-07)
(0.00538729 -1.93767e-07 -3.49708e-07)
(0.00547077 1.49533e-07 2.42341e-07)
(0.00541161 -1.08069e-07 -1.62134e-07)
(0.0054525 8.01527e-08 1.06284e-07)
(0.00542582 -5.42409e-08 -6.3651e-08)
(0.00544212 3.20209e-08 3.58046e-08)
(0.005433 -1.95727e-08 -1.75721e-08)
(0.00543756 7.96896e-09 6.18118e-09)
(0.00543555 -3.51633e-09 -6.03359e-10)
(0.00543619 5.28693e-10 -2.82851e-09)
(0.00543596 -7.33313e-10 3.24283e-09)
(0.00543594 -2.80559e-11 -3.95692e-09)
(0.00543602 2.00516e-10 3.98476e-09)
(0.00543588 -1.3789e-10 -4.03498e-09)
(0.00543597 -1.53298e-10 3.81216e-09)
(0.00543584 1.38515e-10 -3.77785e-09)
(0.00543598 -3.5425e-10 3.79899e-09)
(0.00543584 4.74664e-10 -3.67771e-09)
(0.00543599 1.05723e-10 3.4516e-09)
(0.00543588 4.6965e-11 -3.35569e-09)
(0.00543602 1.569e-10 3.16092e-09)
(0.00543587 2.26888e-11 -2.96893e-09)
(0.00543597 -4.57698e-10 2.70916e-09)
(0.00543586 5.59449e-10 -2.55782e-09)
(0.00543598 -5.03611e-10 2.4859e-09)
(0.0054359 2.91621e-10 -2.42873e-09)
(0.00543598 -5.0561e-10 2.29636e-09)
(0.00543583 4.12648e-10 -2.16014e-09)
(0.00543601 -2.37272e-10 2.16832e-09)
(0.00543581 1.31487e-10 -2.07517e-09)
(0.00543599 -7.87034e-10 2.0736e-09)
(0.00543581 5.27356e-10 -2.01534e-09)
(0.00543596 4.90067e-12 1.91072e-09)
(0.00543584 -2.99113e-10 -1.81278e-09)
(0.00543596 -3.89579e-10 1.72567e-09)
(0.00543584 5.84646e-10 -1.64763e-09)
(0.00543594 1.90066e-10 1.49819e-09)
(0.00543585 -1.71849e-10 -1.43675e-09)
(0.00543592 9.72418e-11 1.28562e-09)
(0.00543587 -3.75029e-11 -1.17186e-09)
(0.00543591 1.04308e-10 1.07684e-09)
(0.00543587 7.77697e-11 -9.90223e-10)
(0.00543592 3.6155e-10 1.38297e-09)
(0.00477251 2.16445e-05 0.000121445)
(0.00616266 8.16984e-07 4.46179e-06)
(0.00517106 -5.32703e-07 -3.07259e-06)
(0.00586519 3.70723e-07 2.14472e-06)
(0.00538037 -2.56766e-07 -1.49735e-06)
(0.00571936 1.77154e-07 1.04261e-06)
(0.00548151 -1.24211e-07 -7.28719e-07)
(0.00564924 8.88869e-08 5.04777e-07)
(0.0055298 -6.56044e-08 -3.48874e-07)
(0.00561543 5.22583e-08 2.41844e-07)
(0.00555488 -3.90423e-08 -1.62e-07)
(0.00559663 3.17504e-08 1.06181e-07)
(0.00556947 -2.29415e-08 -6.3551e-08)
(0.00558601 1.47011e-08 3.57931e-08)
(0.00557678 -1.00209e-08 -1.75337e-08)
(0.00558137 4.11041e-09 6.26488e-09)
(0.00557935 -1.68136e-09 -6.53733e-10)
(0.00557998 3.89749e-10 -2.78748e-09)
(0.00557976 -9.92063e-10 3.2104e-09)
(0.00557973 3.65909e-10 -3.92743e-09)
(0.00557983 -1.0672e-10 3.94717e-09)
(0.00557968 1.86402e-10 -4.00267e-09)
(0.00557978 -5.41901e-10 3.81544e-09)
(0.00557964 4.99426e-10 -3.78617e-09)
(0.00557979 -8.00729e-10 3.84355e-09)
(0.00557964 9.76377e-10 -3.73219e-09)
(0.00557979 -4.30754e-10 3.43987e-09)
(0.00557968 4.36835e-10 -3.33068e-09)
(0.00557983 -1.52707e-10 3.13251e-09)
(0.00557967 3.22847e-10 -2.94695e-09)
(0.00557978 -6.18833e-10 2.71101e-09)
(0.00557966 6.45229e-10 -2.56042e-09)
(0.00557978 -5.42656e-10 2.46692e-09)
(0.0055797 2.88005e-10 -2.40641e-09)
(0.00557979 -5.40291e-10 2.27153e-09)
(0.00557963 5.90782e-10 -2.14614e-09)
(0.00557982 -4.30775e-10 2.1601e-09)
(0.00557961 3.16971e-10 -2.0586e-09)
(0.0055798 -9.68094e-10 2.13953e-09)
(0.00557961 8.08595e-10 -2.08978e-09)
(0.00557977 -2.73879e-10 1.92408e-09)
(0.00557964 2.31072e-11 -1.79032e-09)
(0.00557977 -7.83689e-10 1.80382e-09)
(0.00557964 1.0243e-09 -1.75874e-09)
(0.00557974 -7.09559e-11 1.4974e-09)
(0.00557965 6.84708e-12 -1.43742e-09)
(0.00557972 -1.11199e-11 1.28401e-09)
(0.00557967 5.04566e-11 -1.17234e-09)
(0.00557971 9.34691e-12 1.07448e-09)
(0.00557967 7.36991e-11 -9.82128e-10)
(0.00557972 2.66742e-10 1.38081e-09)
(0.00477251 -2.16442e-05 0.000121444)
(0.00616266 -8.17021e-07 4.46175e-06)
(0.00517106 5.32316e-07 -3.0725e-06)
(0.00586519 -3.70186e-07 2.14465e-06)
(0.00538036 2.57594e-07 -1.49734e-06)
(0.00571937 -1.79842e-07 1.04269e-06)
(0.0054815 1.27e-07 -7.28824e-07)
(0.00564925 -9.1647e-08 5.04845e-07)
(0.0055298 6.63422e-08 -3.48967e-07)
(0.00561543 -4.80097e-08 2.41828e-07)
(0.00555489 3.2318e-08 -1.62063e-07)
(0.00559662 -1.84956e-08 1.06095e-07)
(0.00556947 9.73086e-09 -6.34045e-08)
(0.005586 -3.50016e-09 3.57253e-08)
(0.00557678 1.34698e-10 -1.74571e-08)
(0.00558137 -3.48333e-11 6.32062e-09)
(0.00557935 2.43861e-10 -6.86675e-10)
(0.00557998 1.94328e-10 -2.74257e-09)
(0.00557976 -1.15483e-09 3.18158e-09)
(0.00557973 7.03229e-10 -3.90102e-09)
(0.00557983 -3.9175e-10 3.92094e-09)
(0.00557968 4.82264e-10 -3.9794e-09)
(0.00557978 -8.71703e-10 3.83276e-09)
(0.00557964 8.11189e-10 -3.80726e-09)
(0.00557979 -1.17086e-09 3.90036e-09)
(0.00557964 1.3872e-09 -3.79689e-09)
(0.00557979 -9.25258e-10 3.43553e-09)
(0.00557968 7.72071e-10 -3.31861e-09)
(0.00557982 -4.34453e-10 3.11178e-09)
(0.00557967 5.83548e-10 -2.9248e-09)
(0.00557977 -7.1637e-10 2.71473e-09)
(0.00557966 6.65119e-10 -2.56395e-09)
(0.00557978 -5.28824e-10 2.44628e-09)
(0.0055797 2.48151e-10 -2.38685e-09)
(0.00557979 -5.17013e-10 2.25465e-09)
(0.00557963 7.1494e-10 -2.13344e-09)
(0.00557981 -5.82523e-10 2.15422e-09)
(0.00557961 4.71808e-10 -2.04636e-09)
(0.0055798 -1.05694e-09 2.20885e-09)
(0.00557961 1.01242e-09 -2.16633e-09)
(0.00557977 -5.23934e-10 1.94394e-09)
(0.00557964 3.36156e-10 -1.7771e-09)
(0.00557977 -1.10166e-09 1.88352e-09)
(0.00557964 1.36936e-09 -1.86736e-09)
(0.00557974 -3.23582e-10 1.50289e-09)
(0.00557965 1.77904e-10 -1.4427e-09)
(0.00557972 -1.14475e-10 1.2861e-09)
(0.00557967 1.30401e-10 -1.17399e-09)
(0.00557971 -8.24438e-11 1.07065e-09)
(0.00557967 5.69465e-11 -9.74041e-10)
(0.00557972 1.74059e-10 1.37575e-09)
(0.00465158 -6.41136e-05 0.000122347)
(0.00600446 -2.40421e-06 4.47283e-06)
(0.00503741 1.56871e-06 -3.0771e-06)
(0.00571427 -1.09113e-06 2.14778e-06)
(0.00524157 7.58049e-07 -1.49973e-06)
(0.00557201 -5.27216e-07 1.04479e-06)
(0.00534025 3.71444e-07 -7.30524e-07)
(0.00550363 -2.67236e-07 5.06216e-07)
(0.00538729 1.94685e-07 -3.49977e-07)
(0.00547075 -1.45339e-07 2.42301e-07)
(0.00541163 1.01686e-07 -1.62314e-07)
(0.00545247 -6.73986e-08 1.06015e-07)
(0.00542584 4.15908e-08 -6.32194e-08)
(0.0054421 -2.13766e-08 3.55909e-08)
(0.00543301 1.01453e-08 -1.73367e-08)
(0.00543755 -4.09867e-09 6.34275e-09)
(0.00543555 2.03391e-09 -7.02621e-10)
(0.00543618 -4.90649e-12 -2.70128e-09)
(0.00543596 -1.30149e-09 3.16384e-09)
(0.00543593 1.04505e-09 -3.8795e-09)
(0.00543602 -7.21091e-10 3.90414e-09)
(0.00543588 7.70933e-10 -3.97001e-09)
(0.00543597 -1.18927e-09 3.86417e-09)
(0.00543584 1.10082e-09 -3.83929e-09)
(0.00543598 -1.48892e-09 3.96467e-09)
(0.00543584 1.73871e-09 -3.86768e-09)
(0.00543599 -1.3737e-09 3.44092e-09)
(0.00543588 1.1211e-09 -3.31759e-09)
(0.00543602 -7.39154e-10 3.09741e-09)
(0.00543587 8.26191e-10 -2.90617e-09)
(0.00543597 -8.09165e-10 2.7215e-09)
(0.00543586 6.77596e-10 -2.57061e-09)
(0.00543597 -4.98038e-10 2.42886e-09)
(0.0054359 2.30198e-10 -2.37046e-09)
(0.00543598 -5.19007e-10 2.24391e-09)
(0.00543583 8.16363e-10 -2.12623e-09)
(0.00543601 -7.22773e-10 2.15373e-09)
(0.00543581 6.10074e-10 -2.04021e-09)
(0.00543599 -1.09448e-09 2.27606e-09)
(0.00543581 1.15046e-09 -2.2392e-09)
(0.00543596 -7.52529e-10 1.96694e-09)
(0.00543584 6.4658e-10 -1.77277e-09)
(0.00543596 -1.35275e-09 1.95845e-09)
(0.00543584 1.61768e-09 -1.96575e-09)
(0.00543594 -5.67083e-10 1.51382e-09)
(0.00543585 3.47193e-10 -1.4526e-09)
(0.00543591 -2.20686e-10 1.29233e-09)
(0.00543587 2.13958e-10 -1.17698e-09)
(0.00543591 -1.73376e-10 1.06644e-09)
(0.00543587 5.38332e-11 -9.68351e-10)
(0.00543592 6.00979e-11 1.36313e-09)
(0.00440022 -0.000103953 0.000124116)
(0.0056761 -3.84235e-06 4.49042e-06)
(0.0047602 2.51471e-06 -3.08468e-06)
(0.00540106 -1.74943e-06 2.15332e-06)
(0.00495363 1.2153e-06 -1.50401e-06)
(0.00526622 -8.45216e-07 1.04844e-06)
(0.00504717 5.95458e-07 -7.33295e-07)
(0.00520147 -4.28143e-07 5.08331e-07)
(0.00509158 3.12119e-07 -3.51316e-07)
(0.00517053 -2.33524e-07 2.42746e-07)
(0.00511441 1.64413e-07 -1.62381e-07)
(0.00515335 -1.1136e-07 1.05692e-07)
(0.00512782 7.01088e-08 -6.28486e-08)
(0.00514351 -3.74961e-08 3.53203e-08)
(0.00513469 1.91155e-08 -1.71259e-08)
(0.00513913 -7.74534e-09 6.35394e-09)
(0.00513716 3.51356e-09 -7.16516e-10)
(0.0051378 -1.59013e-10 -2.69174e-09)
(0.00513756 -1.43948e-09 3.14323e-09)
(0.00513755 1.38666e-09 -3.85203e-09)
(0.00513763 -1.09416e-09 3.87555e-09)
(0.0051375 1.09087e-09 -3.99872e-09)
(0.00513758 -1.51356e-09 3.90381e-09)
(0.00513745 1.40366e-09 -3.89652e-09)
(0.00513759 -1.77707e-09 4.04503e-09)
(0.00513746 2.03758e-09 -3.94217e-09)
(0.0051376 -1.78628e-09 3.47471e-09)
(0.00513749 1.47394e-09 -3.29363e-09)
(0.00513763 -1.05926e-09 3.07003e-09)
(0.00513748 1.05668e-09 -2.90421e-09)
(0.00513758 -9.03667e-10 2.72545e-09)
(0.00513747 6.95601e-10 -2.57925e-09)
(0.00513758 -4.79258e-10 2.43566e-09)
(0.00513751 2.48418e-10 -2.35092e-09)
(0.00513759 -5.51359e-10 2.21007e-09)
(0.00513745 9.06763e-10 -2.13024e-09)
(0.00513761 -8.58162e-10 2.15848e-09)
(0.00513743 7.47409e-10 -2.05237e-09)
(0.0051376 -1.09537e-09 2.33612e-09)
(0.00513743 1.22944e-09 -2.31337e-09)
(0.00513757 -9.66748e-10 1.99752e-09)
(0.00513746 9.52587e-10 -1.77762e-09)
(0.00513757 -1.52681e-09 2.01988e-09)
(0.00513745 1.75655e-09 -2.05075e-09)
(0.00513755 -8.06737e-10 1.53246e-09)
(0.00513746 5.22718e-10 -1.46987e-09)
(0.00513753 -3.39698e-10 1.30733e-09)
(0.00513748 3.06639e-10 -1.18532e-09)
(0.00513752 -2.65831e-10 1.07135e-09)
(0.00513748 7.17449e-11 -9.63875e-10)
(0.00513753 -5.97773e-11 1.33617e-09)
(0.00399689 -0.000138889 0.000126604)
(0.00515044 -4.99134e-06 4.50182e-06)
(0.00431688 3.28559e-06 -3.08866e-06)
(0.00489972 -2.28698e-06 2.15661e-06)
(0.00449297 1.58981e-06 -1.50658e-06)
(0.00477691 -1.10755e-06 1.05047e-06)
(0.00457819 7.80851e-07 -7.34521e-07)
(0.00471799 -5.61395e-07 5.08921e-07)
(0.00461843 4.0855e-07 -3.5121e-07)
(0.00469012 -3.03504e-07 2.42042e-07)
(0.00463888 2.13318e-07 -1.61499e-07)
(0.00467468 -1.44556e-07 1.0467e-07)
(0.00465102 9.10959e-08 -6.20404e-08)
(0.0046657 -4.93512e-08 3.47464e-08)
(0.00465739 2.54705e-08 -1.67223e-08)
(0.00466161 -1.03909e-08 6.21894e-09)
(0.00465972 4.38586e-09 -6.13611e-10)
(0.00466035 -1.18853e-10 -2.7722e-09)
(0.0046601 -1.58174e-09 3.19621e-09)
(0.00466011 1.72409e-09 -3.89274e-09)
(0.00466017 -1.50331e-09 3.9086e-09)
(0.00466006 1.56438e-09 -4.0819e-09)
(0.00466012 -1.90589e-09 3.98204e-09)
(0.00466002 1.83353e-09 -3.99065e-09)
(0.00466013 -2.13946e-09 4.15482e-09)
(0.00466002 2.3508e-09 -4.04532e-09)
(0.00466014 -2.23988e-09 3.54691e-09)
(0.00466004 1.78842e-09 -3.30816e-09)
(0.00466018 -1.37628e-09 3.09067e-09)
(0.00466003 1.31898e-09 -2.95553e-09)
(0.00466013 -1.01295e-09 2.7769e-09)
(0.00466002 7.50737e-10 -2.63741e-09)
(0.00466013 -5.54078e-10 2.49758e-09)
(0.00466007 3.29135e-10 -2.38472e-09)
(0.00466013 -5.89729e-10 2.22076e-09)
(0.00466001 1.02656e-09 -2.17853e-09)
(0.00466015 -1.01317e-09 2.19939e-09)
(0.00466 9.39194e-10 -2.09803e-09)
(0.00466013 -1.11229e-09 2.41028e-09)
(0.00466 1.31576e-09 -2.39792e-09)
(0.00466011 -1.20745e-09 2.04002e-09)
(0.00466002 1.26881e-09 -1.79964e-09)
(0.00466011 -1.64067e-09 2.08252e-09)
(0.00466001 1.81471e-09 -2.13026e-09)
(0.0046601 -1.06807e-09 1.556e-09)
(0.00466001 7.32735e-10 -1.49552e-09)
(0.00466008 -5.04322e-10 1.33535e-09)
(0.00466003 4.28252e-10 -1.20991e-09)
(0.00466008 -3.84953e-10 1.09661e-09)
(0.00466003 1.2291e-10 -9.81021e-10)
(0.00466008 -1.17904e-10 1.32174e-09)
(0.00340052 -0.000164266 0.000129469)
(0.00437562 -5.5455e-06 4.45683e-06)
(0.00366443 3.68182e-06 -3.05597e-06)
(0.00416103 -2.56514e-06 2.13336e-06)
(0.00381465 1.78557e-06 -1.48977e-06)
(0.00405618 -1.24678e-06 1.03751e-06)
(0.00388744 8.7957e-07 -7.24737e-07)
(0.00400594 -6.3092e-07 5.01026e-07)
(0.00392156 4.56334e-07 -3.45053e-07)
(0.00398248 -3.33092e-07 2.37526e-07)
(0.00393862 2.31705e-07 -1.57991e-07)
(0.00396954 -1.54532e-07 1.02038e-07)
(0.00394889 9.59311e-08 -6.02338e-08)
(0.00396187 -5.18564e-08 3.34898e-08)
(0.00395444 2.61137e-08 -1.5942e-08)
(0.00395827 -1.03923e-08 5.54348e-09)
(0.00395653 3.65421e-09 -1.30379e-10)
(0.00395714 4.48095e-10 -2.91944e-09)
(0.00395688 -2.07072e-09 3.48538e-09)
(0.00395691 2.35178e-09 -4.14101e-09)
(0.00395695 -2.26659e-09 4.17888e-09)
(0.00395686 2.34718e-09 -4.13138e-09)
(0.0039569 -2.60144e-09 4.14165e-09)
(0.00395683 2.57319e-09 -4.06195e-09)
(0.00395691 -2.76461e-09 4.23351e-09)
(0.00395682 2.87577e-09 -4.16594e-09)
(0.00395693 -2.7962e-09 3.57886e-09)
(0.00395684 2.32714e-09 -3.56157e-09)
(0.00395696 -1.93073e-09 3.30417e-09)
(0.00395683 1.756e-09 -3.05404e-09)
(0.00395692 -1.38456e-09 2.96671e-09)
(0.00395683 1.09121e-09 -2.81094e-09)
(0.00395691 -9.13969e-10 2.58425e-09)
(0.00395687 7.54298e-10 -2.57395e-09)
(0.00395691 -9.59461e-10 2.48781e-09)
(0.00395682 1.34052e-09 -2.29698e-09)
(0.00395693 -1.35028e-09 2.32169e-09)
(0.00395681 1.29752e-09 -2.15474e-09)
(0.00395692 -1.3586e-09 2.51587e-09)
(0.00395681 1.54004e-09 -2.44002e-09)
(0.00395689 -1.53267e-09 2.06397e-09)
(0.00395683 1.6299e-09 -1.83751e-09)
(0.0039569 -1.83002e-09 2.16499e-09)
(0.00395682 1.89846e-09 -2.1818e-09)
(0.0039569 -1.36303e-09 1.56177e-09)
(0.00395682 1.01455e-09 -1.51101e-09)
(0.00395688 -7.67516e-10 1.35726e-09)
(0.00395683 6.46914e-10 -1.25187e-09)
(0.00395687 -5.74232e-10 1.11975e-09)
(0.00395683 3.07055e-10 -1.05394e-09)
(0.00395688 -2.29941e-10 1.42866e-09)
(0.002529 -0.000159762 0.000127109)
(0.00324791 -4.72352e-06 4.06426e-06)
(0.00271677 3.16463e-06 -2.7868e-06)
(0.00308668 -2.20698e-06 1.94413e-06)
(0.00282884 1.53843e-06 -1.3567e-06)
(0.00300839 -1.07639e-06 9.45113e-07)
(0.00288322 7.59449e-07 -6.61012e-07)
(0.00297091 -5.42599e-07 4.5889e-07)
(0.00290851 3.89045e-07 -3.17504e-07)
(0.0029537 -2.76251e-07 2.18937e-07)
(0.00292088 1.8854e-07 -1.4527e-07)
(0.00294429 -1.21181e-07 9.30534e-08)
(0.00292844 7.24976e-08 -5.4528e-08)
(0.00293857 -3.81361e-08 2.96764e-08)
(0.00293268 1.75552e-08 -1.38671e-08)
(0.00293577 -6.06337e-09 4.4963e-09)
(0.00293434 6.7136e-10 1.79816e-10)
(0.00293486 1.39109e-09 -2.68242e-09)
(0.00293463 -2.75374e-09 3.31645e-09)
(0.00293467 2.97342e-09 -3.82819e-09)
(0.00293469 -3.06696e-09 3.87039e-09)
(0.00293463 2.89006e-09 -3.73031e-09)
(0.00293465 -3.1461e-09 3.82117e-09)
(0.0029346 3.09731e-09 -3.69973e-09)
(0.00293466 -3.15884e-09 3.83555e-09)
(0.0029346 3.18217e-09 -3.80354e-09)
(0.00293467 -2.96246e-09 3.2884e-09)
(0.00293461 2.83838e-09 -3.34951e-09)
(0.0029347 -2.48936e-09 3.06955e-09)
(0.0029346 2.07087e-09 -2.78244e-09)
(0.00293467 -1.84403e-09 2.72587e-09)
(0.0029346 1.55832e-09 -2.56662e-09)
(0.00293466 -1.34125e-09 2.30758e-09)
(0.00293464 1.4031e-09 -2.3438e-09)
(0.00293465 -1.60778e-09 2.35058e-09)
(0.0029346 1.65787e-09 -2.14419e-09)
(0.00293467 -1.6704e-09 2.15394e-09)
(0.00293459 1.57884e-09 -1.96998e-09)
(0.00293466 -1.65893e-09 2.25661e-09)
(0.00293459 1.66817e-09 -2.16752e-09)
(0.00293464 -1.6682e-09 1.8832e-09)
(0.00293461 1.78136e-09 -1.73121e-09)
(0.00293465 -1.92009e-09 1.96726e-09)
(0.00293459 1.81911e-09 -1.95074e-09)
(0.00293465 -1.44448e-09 1.44509e-09)
(0.00293459 1.14807e-09 -1.37582e-09)
(0.00293464 -9.46065e-10 1.22941e-09)
(0.0029346 8.27338e-10 -1.13874e-09)
(0.00293464 -7.09367e-10 1.0194e-09)
(0.0029346 5.49562e-10 -9.86936e-10)
(0.00293464 -3.18582e-10 1.27637e-09)
(0.00118895 -7.82474e-05 7.82474e-05)
(0.0015228 -2.23802e-06 2.23803e-06)
(0.00127122 1.53879e-06 -1.53886e-06)
(0.00144542 -1.0726e-06 1.07242e-06)
(0.00132412 7.48498e-07 -7.48099e-07)
(0.00140842 -5.24109e-07 5.23464e-07)
(0.00134983 3.69276e-07 -3.68975e-07)
(0.00139075 -2.62041e-07 2.61523e-07)
(0.00136162 1.86117e-07 -1.85433e-07)
(0.00138284 -1.29818e-07 1.3099e-07)
(0.00136723 8.79489e-08 -8.85398e-08)
(0.00137854 -5.59491e-08 5.75029e-08)
(0.00137076 3.31898e-08 -3.4468e-08)
(0.00137582 -1.7845e-08 1.85907e-08)
(0.00137284 8.03931e-09 -9.08661e-09)
(0.00137442 -2.83461e-09 3.39538e-09)
(0.00137368 1.21653e-10 -7.57895e-10)
(0.00137396 8.2647e-10 -8.26599e-10)
(0.00137383 -1.46714e-09 1.21978e-09)
(0.00137386 1.64516e-09 -1.45502e-09)
(0.00137386 -1.69914e-09 1.47839e-09)
(0.00137384 1.64474e-09 -1.56381e-09)
(0.00137384 -1.71711e-09 1.58304e-09)
(0.00137383 1.71935e-09 -1.58118e-09)
(0.00137385 -1.70567e-09 1.5957e-09)
(0.00137382 1.68239e-09 -1.56878e-09)
(0.00137386 -1.5647e-09 1.51287e-09)
(0.00137382 1.53278e-09 -1.3446e-09)
(0.00137387 -1.37477e-09 1.19165e-09)
(0.00137382 1.16387e-09 -1.10584e-09)
(0.00137386 -1.06452e-09 9.59221e-10)
(0.00137382 9.37265e-10 -8.63451e-10)
(0.00137385 -8.45021e-10 7.91869e-10)
(0.00137384 8.79506e-10 -7.46549e-10)
(0.00137384 -9.5303e-10 7.74015e-10)
(0.00137383 9.31634e-10 -8.5088e-10)
(0.00137385 -9.26773e-10 8.52559e-10)
(0.00137382 8.87239e-10 -8.23269e-10)
(0.00137385 -9.23179e-10 7.99895e-10)
(0.00137382 8.99887e-10 -8.36958e-10)
(0.00137384 -8.97501e-10 8.52472e-10)
(0.00137383 9.26331e-10 -8.45628e-10)
(0.00137385 -9.68334e-10 8.071e-10)
(0.00137382 8.99194e-10 -7.99182e-10)
(0.00137385 -7.50402e-10 7.19765e-10)
(0.00137381 6.32846e-10 -6.32991e-10)
(0.00137384 -5.40925e-10 5.3545e-10)
(0.00137382 4.74276e-10 -4.65492e-10)
(0.00137384 -3.99032e-10 4.18534e-10)
(0.00137382 3.63138e-10 -3.42554e-10)
(0.00137384 -2.38931e-10 4.00449e-10)
(0.002529 0.00012711 0.000159762)
(0.00324791 4.06472e-06 4.72361e-06)
(0.00271678 -2.78749e-06 -3.1646e-06)
(0.00308666 1.94494e-06 2.20699e-06)
(0.00282889 -1.35722e-06 -1.53814e-06)
(0.00300833 9.44599e-07 1.07492e-06)
(0.00288329 -6.60358e-07 -7.5852e-07)
(0.00297087 4.57851e-07 5.41109e-07)
(0.00290852 -3.16652e-07 -3.87481e-07)
(0.00295372 2.18318e-07 2.78679e-07)
(0.00292083 -1.44768e-07 -1.89979e-07)
(0.00294434 9.35182e-08 1.25321e-07)
(0.0029284 -5.53149e-08 -7.60654e-08)
(0.0029386 3.02503e-08 4.06595e-08)
(0.00293267 -1.44153e-08 -2.02181e-08)
(0.00293578 4.14455e-09 7.17279e-09)
(0.00293434 6.43108e-10 -2.11491e-09)
(0.00293486 -2.99455e-09 -1.3381e-09)
(0.00293463 3.66239e-09 2.16607e-09)
(0.00293467 -4.1065e-09 -2.63047e-09)
(0.00293469 4.19433e-09 2.5583e-09)
(0.00293464 -3.89769e-09 -2.67478e-09)
(0.00293465 3.8152e-09 2.83364e-09)
(0.00293461 -3.63152e-09 -2.83035e-09)
(0.00293466 3.59258e-09 2.88905e-09)
(0.0029346 -3.52357e-09 -2.84575e-09)
(0.00293467 3.30229e-09 2.75203e-09)
(0.00293461 -3.60724e-09 -2.38711e-09)
(0.0029347 3.33005e-09 2.11102e-09)
(0.0029346 -2.97e-09 -1.87538e-09)
(0.00293467 2.8665e-09 1.52561e-09)
(0.0029346 -2.69507e-09 -1.29572e-09)
(0.00293466 2.47351e-09 1.12685e-09)
(0.00293464 -2.56208e-09 -1.12834e-09)
(0.00293465 2.63226e-09 1.19419e-09)
(0.00293461 -2.26037e-09 -1.40342e-09)
(0.00293467 2.23283e-09 1.43315e-09)
(0.00293459 -2.07931e-09 -1.40689e-09)
(0.00293466 1.96196e-09 1.44737e-09)
(0.0029346 -1.73274e-09 -1.59261e-09)
(0.00293464 1.78591e-09 1.56633e-09)
(0.00293461 -1.90789e-09 -1.61735e-09)
(0.00293465 1.56059e-09 1.76446e-09)
(0.00293459 -1.27151e-09 -1.74144e-09)
(0.00293466 1.42476e-09 1.34183e-09)
(0.00293459 -1.34354e-09 -1.12012e-09)
(0.00293464 1.2144e-09 9.01793e-10)
(0.0029346 -1.13536e-09 -7.61655e-10)
(0.00293464 1.03797e-09 6.94161e-10)
(0.0029346 -1.07829e-09 -4.70389e-10)
(0.00293464 1.31213e-09 5.97203e-10)
(0.00598524 0.000284603 0.000284603)
(0.00770473 8.98137e-06 8.98139e-06)
(0.00645426 -5.97197e-06 -5.97193e-06)
(0.00732788 4.15589e-06 4.15596e-06)
(0.00671823 -2.89736e-06 -2.89738e-06)
(0.00714363 2.02872e-06 2.02887e-06)
(0.00684624 -1.43801e-06 -1.43817e-06)
(0.00705477 1.032e-06 1.0322e-06)
(0.00690701 -7.41652e-07 -7.42027e-07)
(0.007013 5.34945e-07 5.35066e-07)
(0.00693723 -3.58894e-07 -3.59662e-07)
(0.00699091 2.34602e-07 2.34556e-07)
(0.00695485 -1.39824e-07 -1.3968e-07)
(0.00697801 7.16317e-08 7.12848e-08)