/*--------------------------------*- C++ -*----------------------------------*\
  =========                 |
  \\      /  F ield         | OpenFOAM: The Open Source CFD Toolbox
   \\    /   O peration     | Website:  https://openfoam.org
    \\  /    A nd           | Version:  13
     \\/     M anipulation  |
\*---------------------------------------------------------------------------*/
FoamFile
{
    format      ascii;
    class       surfaceScalarField;
    location    "31";
    object      phi;
}
// * * * * * * * * * * * * * * * * * * * * * * * * * * * * * * * * * * * * * //

dimensions      [0 3 -1 0 0 0 0];

internalField   nonuniform List<scalar> 
3675
(
1.26427e-10
1.06888e-10
1.06888e-10
8.65298e-11
1.99488e-11
1.99494e-11
8.24651e-11
2.03111e-12
2.02865e-12
8.53603e-11
-1.44606e-12
-1.44452e-12
8.57993e-11
-2.1914e-13
-2.19094e-13
8.57426e-11
2.79428e-14
2.7782e-14
8.57919e-11
-2.4529e-14
-2.42262e-14
8.57958e-11
-2.14769e-15
-2.29879e-15
8.57925e-11
1.92284e-15
1.86585e-15
8.57897e-11
1.31138e-15
1.35937e-15
8.57918e-11
-8.44388e-16
-8.97504e-16
8.57892e-11
1.10663e-15
1.16772e-15
8.57916e-11
-9.79415e-16
-1.04666e-15
8.57892e-11
1.0108e-15
1.07752e-15
8.57917e-11
-1.00872e-15
-1.08699e-15
8.57892e-11
1.04301e-15
1.1386e-15
8.57916e-11
-9.9092e-16
-1.06699e-15
8.57891e-11
1.05569e-15
1.12722e-15
8.57916e-11
-1.05714e-15
-1.12168e-15
8.57892e-11
1.00505e-15
1.07574e-15
8.57913e-11
-9.21499e-16
-1.00326e-15
8.57891e-11
9.47323e-16
9.27788e-16
8.57907e-11
-7.5728e-16
-6.87141e-16
8.57894e-11
5.57357e-16
5.77549e-16
8.57909e-11
-6.5074e-16
-7.20288e-16
8.57896e-11
5.49592e-16
5.83986e-16
8.5791e-11
-6.20807e-16
-6.31538e-16
7.77388e-16
8.28472e-16
2.05471e-10
8.60684e-11
1.55553e-10
1.68333e-10
1.84605e-11
3.86277e-11
1.62131e-10
3.12104e-12
5.10031e-12
1.6466e-10
-1.36989e-12
-2.59475e-12
1.65524e-10
-3.85646e-13
-6.94747e-13
1.65553e-10
-1.7729e-14
1.34661e-14
1.65594e-10
-2.98226e-14
-3.38317e-14
1.65599e-10
-3.36433e-15
-5.65147e-15
1.65596e-10
3.43726e-15
2.90215e-15
1.65592e-10
1.44794e-15
3.24728e-15
1.65595e-10
-1.45741e-16
-1.86147e-15
1.65592e-10
6.32084e-16
2.43964e-15
1.65594e-10
-3.99597e-16
-2.23553e-15
1.65592e-10
4.93755e-16
2.2742e-15
1.65595e-10
-3.73776e-16
-2.32772e-15
1.65592e-10
5.22272e-16
2.39026e-15
1.65595e-10
-4.32516e-16
-2.25367e-15
1.65592e-10
4.78028e-16
2.40284e-15
1.65594e-10
-5.25025e-16
-2.37646e-15
1.65592e-10
4.44658e-16
2.28045e-15
1.65594e-10
-4.67004e-16
-2.10706e-15
1.65592e-10
5.58587e-16
1.95662e-15
1.65593e-10
-6.02838e-16
-1.46522e-15
1.65592e-10
2.34527e-16
1.27086e-15
1.65594e-10
-4.08301e-16
-1.44841e-15
1.65592e-10
1.76727e-16
1.27077e-15
1.65594e-10
-2.77295e-16
-1.37564e-15
2.7466e-16
1.8135e-15
2.33365e-10
3.10754e-11
1.61831e-10
2.05394e-10
6.76093e-12
3.96734e-11
2.00681e-10
1.42711e-12
6.3954e-12
2.02602e-10
-4.98812e-13
-2.78167e-12
2.03328e-10
-1.85642e-13
-9.24228e-13
2.03363e-10
-2.05513e-14
-3.54115e-14
2.03394e-10
-1.32995e-14
-4.53845e-14
2.03397e-10
-2.1295e-15
-6.03811e-15
2.03395e-10
2.29068e-15
4.35255e-15
2.03392e-10
2.79193e-16
4.24872e-15
2.03394e-10
5.48661e-16
-1.99064e-15
2.03391e-10
-3.69084e-16
2.91024e-15
2.03394e-10
4.5619e-16
-2.57427e-15
2.03391e-10
-4.26933e-16
2.68251e-15
2.03394e-10
5.45199e-16
-2.65996e-15
2.03392e-10
-4.41192e-16
2.82641e-15
2.03394e-10
4.42731e-16
-2.6174e-15
2.03392e-10
-4.68786e-16
2.80089e-15
2.03394e-10
4.19211e-16
-2.79748e-15
2.03392e-10
-4.75248e-16
2.68006e-15
2.03394e-10
3.61737e-16
-2.4781e-15
2.03391e-10
-2.40291e-16
2.3541e-15
2.03393e-10
1.74823e-17
-1.85603e-15
2.03392e-10
-2.06274e-16
1.41455e-15
2.03393e-10
1.96237e-16
-1.80727e-15
2.03392e-10
-3.40922e-16
1.45181e-15
2.03393e-10
3.09471e-16
-1.61273e-15
-3.88121e-16
2.04972e-15
2.40566e-10
-3.10767e-11
1.6179e-10
2.15996e-10
-6.76535e-12
3.80996e-11
2.12304e-10
-1.42915e-12
6.53662e-12
2.14085e-10
5.1616e-13
-2.78679e-12
2.14694e-10
1.80957e-13
-9.74133e-13
2.14708e-10
1.65986e-14
-5.36014e-14
2.14733e-10
1.49351e-14
-5.11593e-14
2.14735e-10
5.9667e-16
-6.41858e-15
2.14734e-10
-4.68693e-16
5.17545e-15
2.14731e-10
-1.3296e-15
4.44089e-15
2.14733e-10
8.5254e-16
-1.80163e-15
2.1473e-10
-1.1892e-15
2.79332e-15
2.14733e-10
1.06307e-15
-2.43509e-15
2.1473e-10
-1.12195e-15
2.55147e-15
2.14733e-10
1.1852e-15
-2.49532e-15
2.14731e-10
-1.19756e-15
2.69987e-15
2.14733e-10
1.09337e-15
-2.50301e-15
2.14731e-10
-1.19822e-15
2.68414e-15
2.14733e-10
1.16391e-15
-2.68924e-15
2.14731e-10
-1.18424e-15
2.57264e-15
2.14733e-10
1.02102e-15
-2.38059e-15
2.1473e-10
-9.15782e-16
2.27453e-15
2.14732e-10
5.97387e-16
-1.79616e-15
2.1473e-10
-4.71e-16
1.27798e-15
2.14732e-10
7.17831e-16
-1.77372e-15
2.14731e-10
-6.81872e-16
1.36864e-15
2.14732e-10
7.33029e-16
-1.51762e-15
-8.78185e-16
1.94466e-15
2.33365e-10
-8.60693e-11
1.61831e-10
2.05394e-10
-1.84629e-11
3.96732e-11
2.0068e-10
-3.12488e-12
6.39781e-12
2.02602e-10
1.38298e-12
-2.78057e-12
2.03328e-10
3.82682e-13
-9.26496e-13
2.03363e-10
1.48708e-14
-3.60366e-14
2.03394e-10
3.11441e-14
-4.47808e-14
2.03397e-10
2.15235e-15
-6.04523e-15
2.03395e-10
-2.03251e-15
4.47829e-15
2.03392e-10
-2.19237e-15
4.09106e-15
2.03394e-10
1.2013e-15
-1.84614e-15
2.03391e-10
-1.73114e-15
2.64833e-15
2.03394e-10
1.51999e-15
-2.36022e-15
2.03392e-10
-1.5899e-15
2.42544e-15
2.03394e-10
1.6305e-15
-2.38722e-15
2.03392e-10
-1.6854e-15
2.54015e-15
2.03394e-10
1.5406e-15
-2.37456e-15
2.03392e-10
-1.68153e-15
2.54161e-15
2.03394e-10
1.65115e-15
-2.52394e-15
2.03392e-10
-1.64047e-15
2.41145e-15
2.03394e-10
1.45175e-15
-2.23037e-15
2.03391e-10
-1.41519e-15
2.09391e-15
2.03393e-10
1.00397e-15
-1.58985e-15
2.03392e-10
-7.23958e-16
1.28069e-15
2.03393e-10
1.03337e-15
-1.64091e-15
2.03392e-10
-9.15057e-16
1.3013e-15
2.03393e-10
1.00529e-15
-1.44126e-15
-1.24789e-15
1.8966e-15
2.0547e-10
-1.06888e-10
1.55552e-10
1.68332e-10
-1.99482e-11
3.86279e-11
1.62131e-10
-2.035e-12
5.1007e-12
1.64661e-10
1.45181e-12
-2.5919e-12
1.65524e-10
2.18003e-13
-6.97322e-13
1.65554e-10
-2.93153e-14
1.24626e-14
1.65594e-10
2.55041e-14
-3.3001e-14
1.65599e-10
1.56667e-15
-5.82027e-15
1.65596e-10
-1.29188e-15
3.26302e-15
1.65593e-10
-1.5891e-15
3.02901e-15
1.65595e-10
1.2901e-15
-1.55098e-15
1.65592e-10
-1.52528e-15
2.05686e-15
1.65594e-10
1.44156e-15
-1.86214e-15
1.65592e-10
-1.42843e-15
1.89051e-15
1.65595e-10
1.52968e-15
-1.8899e-15
1.65592e-10
-1.49649e-15
1.97564e-15
1.65595e-10
1.44365e-15
-1.87837e-15
1.65592e-10
-1.54715e-15
2.00013e-15
1.65594e-10
1.51675e-15
-1.98725e-15
1.65592e-10
-1.50109e-15
1.87759e-15
1.65594e-10
1.31763e-15
-1.74285e-15
1.65592e-10
-1.41725e-15
1.57771e-15
1.65593e-10
9.83693e-16
-1.18502e-15
1.65592e-10
-7.97107e-16
1.1033e-15
1.65594e-10
8.93634e-16
-1.25723e-15
1.65592e-10
-8.27017e-16
1.03319e-15
1.65594e-10
8.74514e-16
-1.1469e-15
-1.251e-15
1.47644e-15
1.26427e-10
1.06888e-10
8.65296e-11
1.99504e-11
8.2465e-11
2.02729e-12
8.53605e-11
-1.44223e-12
8.57996e-11
-2.20762e-13
8.57426e-11
2.71513e-14
8.57919e-11
-2.34361e-14
8.57958e-11
-2.49484e-15
8.57925e-11
2.13659e-15
8.57897e-11
1.22096e-15
8.57918e-11
-7.00933e-16
8.57893e-11
9.49595e-16
8.57916e-11
-8.1042e-16
8.57892e-11
8.6578e-16
8.57917e-11
-8.15601e-16
8.57893e-11
8.88173e-16
8.57916e-11
-8.29432e-16
8.57891e-11
8.7285e-16
8.57916e-11
-8.68814e-16
8.57892e-11
8.13027e-16
8.57913e-11
-7.70778e-16
8.57891e-11
6.36909e-16
8.57906e-11
-4.99623e-16
8.57894e-11
4.2893e-16
8.57909e-11
-5.99346e-16
8.57896e-11
4.54529e-16
8.5791e-11
-5.2685e-16
5.62002e-16
2.05471e-10
1.55552e-10
8.60688e-11
1.68333e-10
3.8626e-11
1.84628e-11
1.62131e-10
5.10349e-12
3.11554e-12
1.6466e-10
-2.59534e-12
-1.36783e-12
1.65524e-10
-6.94998e-13
-3.85379e-13
1.65553e-10
1.36088e-14
-1.80441e-14
1.65594e-10
-3.43163e-14
-2.90596e-14
1.65599e-10
-5.55785e-15
-3.59436e-15
1.65596e-10
2.99167e-15
3.29732e-15
1.65592e-10
3.18168e-15
1.56459e-15
1.65595e-10
-1.79082e-15
-2.65089e-16
1.65592e-10
2.35977e-15
7.75279e-16
1.65594e-10
-2.1513e-15
-5.47105e-16
1.65592e-10
2.18175e-15
6.54203e-16
1.65595e-10
-2.23891e-15
-5.42596e-16
1.65592e-10
2.28325e-15
7.20743e-16
1.65595e-10
-2.17249e-15
-5.91766e-16
1.65592e-10
2.31449e-15
6.33452e-16
1.65594e-10
-2.30163e-15
-6.66473e-16
1.65592e-10
2.19257e-15
5.98617e-16
1.65594e-10
-2.02216e-15
-6.32356e-16
1.65592e-10
2.02078e-15
4.77196e-16
1.65593e-10
-1.54742e-15
-4.55423e-16
1.65592e-10
1.26201e-15
2.67546e-16
1.65594e-10
-1.37095e-15
-5.51725e-16
1.65592e-10
1.24625e-15
2.44035e-16
1.65594e-10
-1.36112e-15
-3.10205e-16
1.73496e-15
3.88409e-16
3.72923e-10
1.39192e-10
1.39193e-10
3.6142e-10
4.4379e-11
4.4383e-11
3.54174e-10
8.71244e-12
8.70779e-12
3.53814e-10
-2.40141e-12
-2.40224e-12
3.54887e-10
-1.22903e-12
-1.22875e-12
3.5521e-10
-1.51189e-13
-1.51512e-13
3.55233e-10
-4.38818e-14
-4.26902e-14
3.55232e-10
-6.99382e-15
-7.06597e-15
3.55229e-10
5.97004e-15
5.80053e-15
3.55227e-10
3.61456e-15
3.72909e-15
3.55226e-10
-4.04188e-17
-1.34865e-16
3.55227e-10
1.15041e-15
1.26252e-15
3.55226e-10
-7.78463e-16
-8.87937e-16
3.55227e-10
8.99278e-16
1.01748e-15
3.55226e-10
-8.24833e-16
-9.04093e-16
3.55227e-10
1.02064e-15
1.14079e-15
3.55227e-10
-7.9713e-16
-8.95862e-16
3.55227e-10
9.27541e-16
1.0383e-15
3.55226e-10
-9.71128e-16
-1.06751e-15
3.55227e-10
8.34531e-16
9.43141e-16
3.55226e-10
-8.88469e-16
-9.9347e-16
3.55227e-10
9.50818e-16
6.83672e-16
3.55226e-10
-9.7511e-16
-6.77218e-16
3.55226e-10
5.30998e-16
4.89349e-16
3.55226e-10
-6.1108e-16
-7.25187e-16
3.55227e-10
3.72528e-16
3.96642e-16
3.55226e-10
-5.68986e-16
-5.7003e-16
6.68558e-16
8.05555e-16
4.39382e-10
5.24493e-11
1.49395e-10
4.55535e-10
1.83439e-11
4.95619e-11
4.54771e-10
4.24858e-12
1.15957e-11
4.52751e-10
-8.1198e-13
-2.32723e-12
4.52852e-10
-5.8802e-13
-1.66164e-12
4.5308e-10
-1.09085e-13
-3.11629e-13
4.53088e-10
-2.46004e-14
-6.90855e-14
4.53081e-10
-3.50365e-15
-5.90379e-15
4.53082e-10
3.78942e-15
8.58849e-15
4.53082e-10
1.59921e-15
5.34196e-15
4.53081e-10
5.79024e-16
9.3272e-17
4.53082e-10
6.9413e-17
1.62041e-15
4.53082e-10
9.75043e-17
-1.09123e-15
4.53083e-10
-3.56722e-17
1.27715e-15
4.53082e-10
1.25702e-16
-1.09587e-15
4.53083e-10
3.5472e-17
1.44413e-15
4.53082e-10
7.68161e-17
-1.10055e-15
4.53083e-10
-8.55183e-17
1.30028e-15
4.53082e-10
-2.82604e-18
-1.33642e-15
4.53083e-10
-1.09583e-16
1.1962e-15
4.53082e-10
-4.52832e-17
-1.23522e-15
4.53082e-10
2.06768e-16
9.00079e-16
4.53082e-10
-5.14734e-16
-9.38678e-16
4.53082e-10
8.96707e-17
5.46137e-16
4.53081e-10
-3.24599e-18
-9.73406e-16
4.53082e-10
-1.44339e-16
4.77652e-16
4.53081e-10
3.25909e-17
-7.42536e-16
-1.21871e-16
9.66967e-16
4.56923e-10
-5.24507e-11
1.4997e-10
4.82949e-10
-1.83522e-11
4.87773e-11
4.85828e-10
-4.25792e-12
1.21372e-11
4.83624e-10
8.32881e-13
-2.20661e-12
4.83233e-10
5.92509e-13
-1.76013e-12
4.83331e-10
1.0495e-13
-3.70902e-13
4.83319e-10
2.29278e-14
-8.31901e-14
4.83311e-10
1.35218e-15
-5.84235e-15
4.83314e-10
-1.46395e-15
9.91128e-15
4.83316e-10
-2.04084e-15
5.94497e-15
4.83315e-10
5.91959e-16
2.55165e-16
4.83316e-10
-1.03273e-15
1.64602e-15
4.83316e-10
8.57233e-16
-1.08301e-15
4.83317e-10
-8.89728e-16
1.27604e-15
4.83316e-10
9.70237e-16
-1.07674e-15
4.83317e-10
-9.00305e-16
1.44357e-15
4.83317e-10
8.07451e-16
-1.09813e-15
4.83317e-10
-1.00016e-15
1.3001e-15
4.83316e-10
8.7524e-16
-1.34093e-15
4.83317e-10
-9.3194e-16
1.1945e-15
4.83316e-10
7.22815e-16
-1.22713e-15
4.83316e-10
-5.72538e-16
8.66375e-16
4.83316e-10
1.06249e-16
-9.31077e-16
4.83316e-10
-3.53283e-16
5.11967e-16
4.83315e-10
5.65148e-16
-9.97426e-16
4.83316e-10
-5.328e-16
4.66739e-16
4.83315e-10
6.01678e-16
-7.48443e-16
-8.61161e-16
9.66972e-16
4.39382e-10
-1.39193e-10
1.49395e-10
4.55534e-10
-4.43834e-11
4.95627e-11
4.5477e-10
-8.72192e-12
1.15977e-11
4.52752e-10
2.41778e-12
-2.32788e-12
4.52853e-10
1.23243e-12
-1.66392e-12
4.5308e-10
1.4764e-13
-3.1213e-13
4.53088e-10
4.34604e-14
-6.8678e-14
4.53081e-10
5.24151e-15
-5.6672e-15
4.53082e-10
-4.1159e-15
8.63255e-15
4.53082e-10
-3.97433e-15
5.3721e-15
4.53081e-10
1.00301e-15
7.49649e-17
4.53082e-10
-1.91403e-15
1.55579e-15
4.53082e-10
1.58389e-15
-1.05892e-15
4.53083e-10
-1.65065e-15
1.2319e-15
4.53082e-10
1.76876e-15
-1.04406e-15
4.53083e-10
-1.72742e-15
1.36483e-15
4.53082e-10
1.54869e-15
-1.07431e-15
4.53083e-10
-1.82767e-15
1.24048e-15
4.53082e-10
1.70996e-15
-1.28033e-15
4.53083e-10
-1.71712e-15
1.13363e-15
4.53082e-10
1.44425e-15
-1.16058e-15
4.53082e-10
-1.48644e-15
7.72147e-16
4.53082e-10
8.72555e-16
-7.9053e-16
4.53082e-10
-8.22498e-16
5.28167e-16
4.53081e-10
1.07664e-15
-9.53068e-16
4.53082e-10
-8.97317e-16
4.61289e-16
4.53081e-10
1.05635e-15
-7.26944e-16
-1.56833e-15
9.35697e-16
3.72923e-10
-1.55553e-10
1.39193e-10
3.61418e-10
-3.86263e-11
4.43839e-11
3.54173e-10
-5.10934e-12
8.71056e-12
3.53816e-10
2.60188e-12
-2.40319e-12
3.54888e-10
6.96508e-13
-1.23167e-12
3.55211e-10
-1.53351e-14
-1.51941e-13
3.55232e-10
3.4664e-14
-4.22922e-14
3.55232e-10
4.78749e-15
-6.71725e-15
3.55229e-10
-2.16753e-15
5.83767e-15
3.55227e-10
-3.29745e-15
3.82325e-15
3.55226e-10
2.19573e-15
-2.01233e-16
3.55227e-10
-2.64686e-15
1.22478e-15
3.55226e-10
2.4864e-15
-8.85622e-16
3.55227e-10
-2.47575e-15
1.00377e-15
3.55226e-10
2.65715e-15
-8.77011e-16
3.55228e-10
-2.55382e-15
1.09514e-15
3.55227e-10
2.48291e-15
-9.05401e-16
3.55227e-10
-2.68117e-15
1.01272e-15
3.55226e-10
2.59996e-15
-1.04222e-15
3.55227e-10
-2.56333e-15
9.15073e-16
3.55226e-10
2.23694e-15
-9.33101e-16
3.55227e-10
-2.3936e-15
5.64379e-16
3.55226e-10
1.63632e-15
-5.43342e-16
3.55226e-10
-1.43159e-15
5.09704e-16
3.55226e-10
1.54502e-15
-7.46018e-16
3.55227e-10
-1.41497e-15
3.95885e-16
3.55226e-10
1.50449e-15
-5.97325e-16
-2.20877e-15
7.63036e-16
2.05471e-10
8.6069e-11
1.68332e-10
1.84635e-11
1.62131e-10
3.11681e-12
1.64661e-10
-1.36906e-12
1.65524e-10
-3.87056e-13
1.65554e-10
-1.80003e-14
1.65594e-10
-2.87084e-14
1.65599e-10
-3.41468e-15
1.65596e-10
3.28277e-15
1.65593e-10
1.60664e-15
1.65595e-10
-3.96479e-16
1.65592e-10
8.10922e-16
1.65594e-10
-6.16972e-16
1.65592e-10
7.13952e-16
1.65595e-10
-5.97095e-16
1.65592e-10
7.38103e-16
1.65595e-10
-6.54644e-16
1.65592e-10
6.83191e-16
1.65594e-10
-6.96083e-16
1.65592e-10
6.31978e-16
1.65594e-10
-6.36256e-16
1.65592e-10
4.40254e-16
1.65593e-10
-3.43479e-16
1.65592e-10
2.38933e-16
1.65594e-10
-5.70269e-16
1.65592e-10
3.16789e-16
1.65594e-10
-4.01545e-16
3.98644e-16
2.33365e-10
1.61831e-10
3.1076e-11
2.05394e-10
3.96715e-11
6.76426e-12
2.00681e-10
6.39764e-12
1.42066e-12
2.02601e-10
-2.78129e-12
-4.97441e-13
2.03328e-10
-9.2439e-13
-1.85329e-13
2.03363e-10
-3.5323e-14
-2.08067e-14
2.03394e-10
-4.58141e-14
-1.2378e-14
2.03397e-10
-6.04546e-15
-2.29367e-15
2.03395e-10
4.40551e-15
2.09415e-15
2.03392e-10
4.19378e-15
4.57993e-16
2.03394e-10
-1.93447e-15
3.70744e-16
2.03391e-10
2.84547e-15
-1.49862e-16
2.03394e-10
-2.51267e-15
2.47972e-16
2.03392e-10
2.60936e-15
-1.8405e-16
2.03394e-10
-2.5949e-15
2.90335e-16
2.03392e-10
2.75121e-15
-1.74882e-16
2.03394e-10
-2.55993e-15
2.0976e-16
2.03392e-10
2.73424e-15
-2.48695e-16
2.03394e-10
-2.73969e-15
2.05089e-16
2.03392e-10
2.61387e-15
-2.57156e-16
2.03394e-10
-2.43288e-15
1.46196e-16
2.03391e-10
2.43634e-15
-3.27118e-16
2.03393e-10
-1.89721e-15
1.44273e-16
2.03392e-10
1.40164e-15
-1.39751e-16
2.03393e-10
-1.75809e-15
1.43313e-17
2.03392e-10
1.43935e-15
-2.35801e-16
2.03393e-10
-1.60253e-15
2.49531e-16
1.97204e-15
-2.11892e-16
4.39382e-10
1.49395e-10
5.24499e-11
4.55535e-10
4.95571e-11
1.83492e-11
4.54771e-10
1.15999e-11
4.24372e-12
4.52751e-10
-2.32545e-12
-8.14084e-13
4.52851e-10
-1.66163e-12
-5.87942e-13
4.5308e-10
-3.11246e-13
-1.09517e-13
4.53088e-10
-7.0314e-14
-2.30567e-14
4.53081e-10
-6.04576e-15
-3.43758e-15
4.53082e-10
8.70853e-15
3.58864e-15
4.53082e-10
5.23432e-15
1.74056e-15
4.53081e-10
1.9567e-16
4.7149e-16
4.53082e-10
1.51095e-15
2.00426e-16
4.53082e-10
-9.85847e-16
-1.98554e-17
4.53083e-10
1.15891e-15
9.80693e-17
4.53082e-10
-1.02428e-15
5.20713e-17
4.53083e-10
1.32381e-15
1.5602e-16
4.53082e-10
-1.01284e-15
-3.24859e-17
4.53083e-10
1.18917e-15
3.17141e-17
4.53082e-10
-1.2471e-15
-1.11316e-16
4.53083e-10
1.08847e-15
3.33534e-18
4.53082e-10
-1.15114e-15
-1.65169e-16
4.53082e-10
1.20153e-15
-1.65971e-16
4.53082e-10
-1.19686e-15
-9.9492e-17
4.53082e-10
5.68792e-16
2.68016e-17
4.53081e-10
-8.62537e-16
-1.37684e-16
4.53082e-10
4.73192e-16
-1.29091e-16
4.53081e-10
-7.3018e-16
3.79502e-17
8.15055e-16
6.10362e-17
5.24435e-10
5.72786e-11
5.72792e-11
5.80637e-10
2.14583e-11
2.14645e-11
5.92111e-10
5.85025e-12
5.84557e-12
5.8883e-10
-6.73117e-13
-6.76072e-13
5.87099e-10
-7.9423e-13
-7.94585e-13
5.86881e-10
-2.05108e-13
-2.05627e-13
5.86829e-10
-4.27836e-14
-4.11567e-14
5.86821e-10
-3.18974e-15
-2.88295e-15
5.8683e-10
5.37431e-15
5.24008e-15
5.86835e-10
2.53552e-15
2.67212e-15
5.86835e-10
8.31505e-16
7.07605e-16
5.86836e-10
2.1512e-16
3.50997e-16
5.86836e-10
4.84137e-17
-7.07793e-17
5.86837e-10
3.25839e-17
1.78028e-16
5.86836e-10
8.74788e-17
9.91662e-18
5.86838e-10
1.30807e-16
2.63288e-16
5.86837e-10
2.3812e-17
-8.54136e-17
5.86838e-10
-2.11731e-17
1.05023e-16
5.86837e-10
-9.59384e-17
-2.06101e-16
5.86838e-10
-4.59368e-17
7.5083e-17
5.86837e-10
-1.45234e-16
-2.50088e-16
5.86837e-10
2.49511e-16
-1.52263e-16
5.86836e-10
-5.64533e-16
-2.07473e-16
5.86837e-10
4.80714e-17
1.06068e-17
5.86836e-10
-7.66927e-17
-2.16317e-16
5.86836e-10
-1.29544e-16
-1.31297e-16
5.86835e-10
-1.31734e-17
-2.35451e-17
-1.01545e-16
1.06203e-16
5.47031e-10
-5.72801e-11
5.77008e-11
6.17307e-10
-2.14668e-11
2.14344e-11
6.34933e-10
-5.86071e-12
6.19752e-12
6.31962e-10
6.93549e-13
-5.83381e-13
6.2945e-10
8.0138e-13
-8.4061e-13
6.28908e-10
2.01489e-13
-2.40848e-13
6.28796e-10
4.05594e-14
-5.04867e-14
6.28787e-10
6.98374e-16
-2.89304e-15
6.28801e-10
-3.27063e-15
5.9121e-15
6.28809e-10
-2.73236e-15
3.11278e-15
6.28811e-10
4.98541e-16
7.5128e-16
6.28812e-10
-1.09328e-15
4.41788e-16
6.28812e-10
8.936e-16
-1.31853e-16
6.28813e-10
-9.50418e-16
2.42211e-16
6.28812e-10
1.02305e-15
-4.85842e-17
6.28813e-10
-9.53035e-16
3.31039e-16
6.28813e-10
8.54067e-16
-1.4874e-16
6.28814e-10
-1.08133e-15
1.71844e-16
6.28813e-10
9.19645e-16
-2.76245e-16
6.28814e-10
-1.00283e-15
1.38813e-16
6.28813e-10
7.52834e-16
-3.01729e-16
6.28813e-10
-6.83774e-16
-1.42017e-16
6.28812e-10
1.6256e-16
-2.14032e-16
6.28812e-10
-3.90366e-16
1.08687e-17
6.28811e-10
6.47242e-16
-2.7158e-16
6.28812e-10
-5.53083e-16
-9.50826e-17
6.28811e-10
6.34946e-16
-7.94856e-17
-9.32492e-16
1.62001e-16
5.24435e-10
-1.49396e-10
5.72795e-11
5.80636e-10
-4.95617e-11
2.14656e-11
5.92111e-10
-1.16107e-11
5.84795e-12
5.88831e-10
2.34174e-12
-6.78518e-13
5.87101e-10
1.66728e-12
-7.96447e-13
5.86882e-10
3.07963e-13
-2.05498e-13
5.86829e-10
6.93306e-14
-4.08986e-14
5.8682e-10
4.07969e-15
-2.52862e-15
5.8683e-10
-6.93633e-15
5.07498e-15
5.86835e-10
-5.41508e-15
2.83193e-15
5.86835e-10
9.18735e-16
5.62411e-16
5.86837e-10
-2.21853e-15
4.61857e-16
5.86836e-10
1.80535e-15
-1.85938e-16
5.86837e-10
-1.90862e-15
2.94616e-16
5.86836e-10
1.99537e-15
-1.06962e-16
5.86838e-10
-1.99269e-15
3.5452e-16
5.86837e-10
1.76485e-15
-2.11916e-16
5.86838e-10
-2.10625e-15
2.08403e-16
5.86837e-10
1.94657e-15
-3.1264e-16
5.86838e-10
-1.97304e-15
1.74902e-16
5.86837e-10
1.65021e-15
-3.21926e-16
5.86837e-10
-1.75813e-15
-1.45372e-16
5.86836e-10
1.02415e-15
-1.4446e-16
5.86836e-10
-9.00031e-16
4.79914e-17
5.86836e-10
1.3104e-15
-2.91291e-16
5.86836e-10
-1.01074e-15
-5.49392e-17
5.86835e-10
1.20044e-15
-1.13037e-16
-1.79261e-15
2.09295e-16
4.39382e-10
-1.61832e-10
5.24502e-11
4.55533e-10
-3.9672e-11
1.83507e-11
4.5477e-10
-6.40472e-12
4.24668e-12
4.52752e-10
2.78807e-12
-8.17143e-13
4.52853e-10
9.27518e-13
-5.9013e-13
4.5308e-10
3.3711e-14
-1.09342e-13
4.53088e-10
4.56626e-14
-2.27194e-14
4.53081e-10
5.22551e-15
-2.99455e-15
4.53082e-10
-3.58725e-15
3.37196e-15
4.53082e-10
-4.18032e-15
1.92608e-15
4.53081e-10
2.37743e-15
3.24466e-16
4.53082e-10
-3.04113e-15
2.9469e-16
4.53082e-10
2.80372e-15
-1.24023e-16
4.53083e-10
-2.83296e-15
1.97779e-16
4.53082e-10
2.96014e-15
-4.59156e-17
4.53083e-10
-2.91547e-15
2.31158e-16
4.53082e-10
2.80409e-15
-1.45366e-16
4.53083e-10
-3.04106e-15
1.26989e-16
4.53082e-10
2.95204e-15
-2.05489e-16
4.53083e-10
-2.9132e-15
9.76581e-17
4.53082e-10
2.55068e-15
-2.17351e-16
4.53082e-10
-2.75385e-15
-1.98423e-16
4.53081e-10
1.82163e-15
2.38931e-17
4.53082e-10
-1.49945e-15
3.98828e-17
4.53081e-10
1.87308e-15
-2.17965e-16
4.53082e-10
-1.59731e-15
-5.50844e-17
4.53081e-10
1.70417e-15
-6.28573e-17
-2.47174e-15
1.5227e-16
2.33365e-10
3.10764e-11
2.05393e-10
6.76441e-12
2.0068e-10
1.42269e-12
2.02602e-10
-5.01628e-13
2.03328e-10
-1.85235e-13
2.03364e-10
-1.99108e-14
2.03394e-10
-1.28151e-14
2.03397e-10
-1.87053e-15
2.03395e-10
1.81554e-15
2.03392e-10
7.38572e-16
2.03394e-10
6.34466e-18
2.03392e-10
1.92706e-16
2.03394e-10
-1.10375e-16
2.03392e-10
1.70471e-16
2.03394e-10
-8.78626e-17
2.03392e-10
1.70527e-16
2.03394e-10
-1.59935e-16
2.03392e-10
1.16562e-16
2.03394e-10
-1.42109e-16
2.03392e-10
9.421e-17
2.03394e-10
-1.51888e-16
2.03391e-10
-7.76794e-17
2.03393e-10
2.44778e-17
2.03391e-10
-5.08602e-18
2.03393e-10
-1.72884e-16
2.03392e-10
4.59888e-18
2.03393e-10
-2.45377e-17
4.0597e-17
2.40566e-10
1.6179e-10
-3.10762e-11
2.15996e-10
3.80981e-11
-6.76215e-12
2.12304e-10
6.53703e-12
-1.43426e-12
2.14085e-10
-2.78557e-12
5.16572e-13
2.14694e-10
-9.74069e-13
1.81155e-13
2.14708e-10
-5.34953e-14
1.63863e-14
2.14733e-10
-5.14856e-14
1.57419e-14
2.14735e-10
-6.50053e-15
5.18023e-16
2.14734e-10
5.17936e-15
-6.28024e-16
2.14731e-10
4.42249e-15
-1.16314e-15
2.14733e-10
-1.79238e-15
6.98845e-16
2.1473e-10
2.78796e-15
-9.93651e-16
2.14733e-10
-2.4297e-15
8.85698e-16
2.1473e-10
2.54629e-15
-9.07866e-16
2.14733e-10
-2.51036e-15
9.62872e-16
2.14731e-10
2.70291e-15
-9.77174e-16
2.14733e-10
-2.50983e-15
8.90233e-16
2.14731e-10
2.67919e-15
-1.01145e-15
2.14733e-10
-2.69059e-15
9.74327e-16
2.14731e-10
2.5697e-15
-1.00018e-15
2.14733e-10
-2.38399e-15
8.36838e-16
2.1473e-10
2.38099e-15
-1.00494e-15
2.14732e-10
-1.88941e-15
7.19747e-16
2.1473e-10
1.30844e-15
-4.17094e-16
2.14732e-10
-1.76126e-15
5.63123e-16
2.14731e-10
1.3878e-15
-5.9992e-16
2.14732e-10
-1.52517e-15
6.88405e-16
1.90301e-15
-6.93166e-16
4.56923e-10
1.4997e-10
-5.24502e-11
4.8295e-10
4.87724e-11
-1.83476e-11
4.85828e-10
1.21403e-11
-4.26126e-12
4.83624e-10
-2.20419e-12
8.30426e-13
4.83233e-10
-1.75977e-12
5.92336e-13
4.8333e-10
-3.7038e-13
1.04571e-13
4.83319e-10
-8.43682e-14
2.41906e-14
4.83311e-10
-6.10499e-15
1.53875e-15
4.83314e-10
9.9564e-15
-1.61681e-15
4.83316e-10
5.84839e-15
-1.91533e-15
4.83315e-10
3.33299e-16
5.02488e-16
4.83316e-10
1.56967e-15
-9.22197e-16
4.83316e-10
-1.00921e-15
7.65673e-16
4.83317e-10
1.19402e-15
-7.78252e-16
4.83316e-10
-1.0503e-15
9.10942e-16
4.83317e-10
1.3608e-15
-8.09519e-16
4.83317e-10
-1.04699e-15
7.16651e-16
4.83317e-10
1.22022e-15
-9.06834e-16
4.83316e-10
-1.2843e-15
7.83662e-16
4.83317e-10
1.12053e-15
-8.43255e-16
4.83316e-10
-1.1827e-15
6.32955e-16
4.83316e-10
1.20183e-15
-8.95529e-16
4.83316e-10
-1.19465e-15
4.37568e-16
4.83316e-10
5.47087e-16
-3.95036e-16
4.83315e-10
-9.09118e-16
4.6143e-16
4.83316e-10
4.85309e-16
-5.33104e-16
4.83315e-10
-7.37876e-16
6.14408e-16
8.30392e-16
-6.76477e-16
5.47032e-10
5.77003e-11
-5.72795e-11
6.17307e-10
2.1428e-11
-2.14614e-11
6.34933e-10
6.20148e-12
-5.86386e-12
6.31962e-10
-5.80039e-13
6.903e-13
6.2945e-10
-8.39942e-13
8.00791e-13
6.28908e-10
-2.4022e-13
2.01068e-13
6.28796e-10
-5.20984e-14
4.1919e-14
6.28787e-10
-3.30168e-15
1.08218e-15
6.28801e-10
5.98739e-15
-3.38181e-15
6.28809e-10
2.97919e-15
-2.59964e-15
6.28811e-10
8.67208e-16
3.81302e-16
6.28812e-10
3.21807e-16
-9.66433e-16
6.28812e-10
-2.71615e-17
7.878e-16
6.28813e-10
1.12513e-16
-8.15513e-16
6.28812e-10
8.38419e-18
9.47839e-16
6.28813e-10
2.14887e-16
-8.42014e-16
6.28813e-10
-5.6513e-17
7.49546e-16
6.28814e-10
5.92526e-17
-9.69466e-16
6.28813e-10
-1.81547e-16
8.14875e-16
6.28814e-10
3.32505e-17
-8.96967e-16
6.28813e-10
-2.15972e-16
6.5794e-16
6.28813e-10
2.8083e-16
-1.02067e-15
6.28812e-10
-5.70324e-16
4.67039e-16
6.28812e-10
5.3154e-17
-4.20838e-16
6.28811e-10
-1.42971e-16
5.25127e-16
6.28812e-10
-8.19423e-17
-5.64563e-16
6.28811e-10
-6.66756e-17
6.37539e-16
-4.22337e-17
-7.00349e-16
5.71007e-10
-5.77015e-11
-5.7701e-11
6.56742e-10
-2.14356e-11
-2.14299e-11
6.81542e-10
-6.21058e-12
-6.21388e-12
6.79205e-10
5.97443e-13
5.94136e-13
6.75835e-10
8.46675e-13
8.45983e-13
6.74875e-10
2.3739e-13
2.36914e-13
6.74674e-10
4.98853e-14
5.13138e-14
6.74663e-10
9.70445e-16
1.39262e-15
6.74686e-10
-4.20547e-15
-4.29126e-15
6.74697e-10
-2.96005e-15
-2.83124e-15
6.747e-10
3.59273e-16
2.37946e-16
6.74702e-10
-9.99565e-16
-8.77178e-16
6.74701e-10
8.19754e-16
7.14544e-16
6.74702e-10
-8.67138e-16
-7.33501e-16
6.74702e-10
9.3186e-16
8.62188e-16
6.74703e-10
-8.77068e-16
-7.64278e-16
6.74703e-10
7.68662e-16
6.69113e-16
6.74704e-10
-1.00638e-15
-8.93802e-16
6.74703e-10
8.2841e-16
7.28806e-16
6.74703e-10
-9.27979e-16
-8.2159e-16
6.74702e-10
6.79329e-16
5.89228e-16
6.74703e-10
-6.47688e-16
-1.00191e-15
6.74702e-10
1.57335e-16
4.63196e-16
6.74702e-10
-3.65301e-16
-4.02494e-16
6.74701e-10
6.03743e-16
4.82722e-16
6.74701e-10
-4.92802e-16
-5.06251e-16
6.747e-10
5.69991e-16
5.66465e-16
-8.69765e-16
-6.4119e-16
5.47031e-10
-1.49971e-10
-5.72792e-11
6.17306e-10
-4.87766e-11
-2.14602e-11
6.34932e-10
-1.21499e-11
-5.86235e-12
6.31963e-10
2.21856e-12
6.87184e-13
6.29451e-10
1.76495e-12
7.99785e-13
6.28909e-10
3.67692e-13
2.01632e-13
6.28796e-10
8.33579e-14
4.21487e-14
6.28786e-10
4.26372e-15
1.3801e-15
6.28801e-10
-8.43676e-15
-3.65588e-15
6.28809e-10
-5.85155e-15
-2.44637e-15
6.28811e-10
6.68564e-16
2.50504e-16
6.28812e-10
-2.10418e-15
-8.06465e-16
6.28812e-10
1.68506e-15
6.64216e-16
6.28813e-10
-1.79369e-15
-6.70991e-16
6.28812e-10
1.86779e-15
8.00379e-16
6.28814e-10
-1.87995e-15
-7.09969e-16
6.28813e-10
1.65135e-15
6.09367e-16
6.28814e-10
-1.99633e-15
-8.29775e-16
6.28813e-10
1.83189e-15
6.71838e-16
6.28814e-10
-1.86589e-15
-7.59595e-16
6.28813e-10
1.55095e-15
5.49225e-16
6.28813e-10
-1.67174e-15
-9.73708e-16
6.28812e-10
9.77537e-16
4.96688e-16
6.28812e-10
-8.24003e-16
-3.97027e-16
6.28811e-10
1.26098e-15
4.30312e-16
6.28812e-10
-9.28652e-16
-4.73058e-16
6.28811e-10
1.10383e-15
5.28981e-16
-1.71548e-15
-5.62989e-16
4.56923e-10
-1.6179e-10
-5.24496e-11
4.82948e-10
-3.80987e-11
-1.83461e-11
4.85827e-10
-6.54253e-12
-4.25656e-12
4.83625e-10
2.79159e-12
8.23443e-13
4.83235e-10
9.7644e-13
5.90954e-13
4.83331e-10
5.2189e-14
1.05885e-13
4.83319e-10
5.13327e-14
2.41019e-14
4.83311e-10
5.78622e-15
2.25128e-15
4.83314e-10
-4.51912e-15
-2.21222e-15
4.83316e-10
-4.28642e-15
-1.5376e-15
4.83315e-10
2.13702e-15
1.96366e-16
4.83316e-10
-2.87034e-15
-5.87173e-16
4.83316e-10
2.61545e-15
4.70858e-16
4.83317e-10
-2.66813e-15
-4.75795e-16
4.83316e-10
2.78082e-15
5.94881e-16
4.83317e-10
-2.75137e-15
-5.095e-16
4.83317e-10
2.65428e-15
4.13352e-16
4.83317e-10
-2.88069e-15
-5.90559e-16
4.83316e-10
2.80155e-15
4.78621e-16
4.83317e-10
-2.76389e-15
-5.35942e-16
4.83316e-10
2.40117e-15
3.86314e-16
4.83316e-10
-2.59962e-15
-7.41044e-16
4.83316e-10
1.76058e-15
4.75032e-16
4.83316e-10
-1.35485e-15
-3.50298e-16
4.83315e-10
1.79564e-15
2.72743e-16
4.83316e-10
-1.48617e-15
-3.31152e-16
4.83315e-10
1.54833e-15
3.55254e-16
-2.36123e-15
-3.82598e-16
2.40566e-10
-3.10757e-11
2.15995e-10
-6.76251e-12
2.12304e-10
-1.43133e-12
2.14086e-10
5.10275e-13
2.14695e-10
1.82554e-13
2.14708e-10
1.80905e-14
2.14732e-10
1.46918e-14
2.14735e-10
1.11434e-15
2.14734e-10
-1.1954e-15
2.14731e-10
-6.33004e-16
2.14733e-10
1.15492e-16
2.1473e-10
-3.33127e-16
2.14733e-10
2.46329e-16
2.1473e-10
-2.59653e-16
2.14733e-10
2.78853e-16
2.14731e-10
-2.92968e-16
2.14733e-10
2.25549e-16
2.14731e-10
-3.36288e-16
2.14733e-10
3.13302e-16
2.14731e-10
-3.35375e-16
2.14733e-10
2.32417e-16
2.1473e-10
-4.61197e-16
2.14732e-10
3.53421e-16
2.1473e-10
-1.07973e-16
2.14732e-10
1.90727e-16
2.14731e-10
-2.01165e-16
2.14732e-10
2.3708e-16
-2.46607e-16
2.33365e-10
1.61831e-10
-8.60691e-11
2.05394e-10
3.96722e-11
-1.84614e-11
2.0068e-10
6.39704e-12
-3.12671e-12
2.02602e-10
-2.77913e-12
1.38262e-12
2.03328e-10
-9.26316e-13
3.82718e-13
2.03363e-10
-3.58591e-14
1.47618e-14
2.03394e-10
-4.50563e-14
3.15572e-14
2.03397e-10
-6.15033e-15
2.14395e-15
2.03395e-10
4.45758e-15
-2.10546e-15
2.03392e-10
4.10666e-15
-2.11157e-15
2.03394e-10
-1.87495e-15
1.13635e-15
2.03391e-10
2.6935e-15
-1.64442e-15
2.03394e-10
-2.39769e-15
1.44532e-15
2.03392e-10
2.47792e-15
-1.49806e-15
2.03394e-10
-2.47185e-15
1.53957e-15
2.03392e-10
2.596e-15
-1.59582e-15
2.03394e-10
-2.4335e-15
1.45164e-15
2.03392e-10
2.58095e-15
-1.6019e-15
2.03394e-10
-2.57456e-15
1.56693e-15
2.03392e-10
2.454e-15
-1.56358e-15
2.03394e-10
-2.27931e-15
1.36879e-15
2.03391e-10
2.22011e-15
-1.46681e-15
2.03393e-10
-1.71686e-15
1.09796e-15
2.03391e-10
1.34627e-15
-7.19936e-16
2.03393e-10
-1.65293e-15
9.56002e-16
2.03392e-10
1.34889e-15
-8.80158e-16
2.03393e-10
-1.46702e-15
9.86692e-16
1.88565e-15
-1.1542e-15
4.39382e-10
1.49395e-10
-1.39193e-10
4.55535e-10
4.95579e-11
-4.43814e-11
4.5477e-10
1.16005e-11
-8.72271e-12
4.52751e-10
-2.32545e-12
2.41601e-12
4.52852e-10
-1.66349e-12
1.23219e-12
4.5308e-10
-3.11504e-13
1.4756e-13
4.53088e-10
-6.9817e-14
4.39311e-14
4.53081e-10
-5.9377e-15
5.44438e-15
4.53082e-10
8.65477e-15
-4.17954e-15
4.53082e-10
5.28374e-15
-3.91493e-15
4.53081e-10
1.28609e-16
9.60197e-16
4.53082e-10
1.49836e-15
-1.86272e-15
4.53082e-10
-1.00852e-15
1.54572e-15
4.53083e-10
1.17102e-15
-1.59931e-15
4.53082e-10
-1.04586e-15
1.74093e-15
4.53083e-10
1.30856e-15
-1.69401e-15
4.53082e-10
-1.04379e-15
1.50943e-15
4.53083e-10
1.18597e-15
-1.78778e-15
4.53082e-10
-1.24326e-15
1.66835e-15
4.53083e-10
1.08582e-15
-1.67911e-15
4.53082e-10
-1.13732e-15
1.41409e-15
4.53082e-10
1.1269e-15
-1.62598e-15
4.53082e-10
-1.06822e-15
9.76328e-16
4.53082e-10
5.70249e-16
-8.18328e-16
4.53081e-10
-8.7887e-16
1.0376e-15
4.53082e-10
4.86607e-16
-9.12858e-16
4.53081e-10
-7.15466e-16
1.07542e-15
8.28596e-16
-1.45147e-15
5.24435e-10
5.72789e-11
-1.49395e-10
5.80636e-10
2.14593e-11
-4.9559e-11
5.92111e-10
5.85186e-12
-1.16116e-11
5.8883e-10
-6.75192e-13
2.33961e-12
5.871e-10
-7.95855e-13
1.66683e-12
5.86882e-10
-2.04897e-13
3.07772e-13
5.86829e-10