/*--------------------------------*- C++ -*----------------------------------*\
  =========                 |
  \\      /  F ield         | OpenFOAM: The Open Source CFD Toolbox
   \\    /   O peration     | Website:  https://openfoam.org
    \\  /    A nd           | Version:  13
     \\/     M anipulation  |
\*---------------------------------------------------------------------------*/
FoamFile
{
    format      ascii;
    class       surfaceScalarField;
    location    "26";
    object      phi;
}
// * * * * * * * * * * * * * * * * * * * * * * * * * * * * * * * * * * * * * //

dimensions      [0 3 -1 0 0 0 0];

internalField   nonuniform List<scalar> 
28364
(
1.10553e-11
3.69979e-11
3.69979e-11
5.78439e-12
2.63578e-12
2.6358e-12
7.28949e-12
-7.52684e-13
-7.52659e-13
6.83576e-12
2.27514e-13
2.27425e-13
7.06529e-12
-1.1537e-13
-1.15358e-13
6.99189e-12
3.71264e-14
3.71654e-14
7.01229e-12
-1.05562e-14
-1.05214e-14
7.0114e-12
7.09743e-16
6.55504e-16
7.00703e-12
1.87278e-15
1.86814e-15
7.01074e-12
-1.88779e-15
-1.87644e-15
7.00813e-12
1.24403e-15
1.24237e-15
7.01017e-12
-1.00789e-15
-1.00591e-15
7.00822e-12
9.13231e-16
9.14022e-16
7.01013e-12
-9.38591e-16
-9.39802e-16
7.00819e-12
9.16757e-16
9.19333e-16
7.01006e-12
-9.20087e-16
-9.23747e-16
7.00804e-12
9.41886e-16
9.43926e-16
7.01011e-12
-1.01703e-15
-1.01329e-15
7.00826e-12
9.05173e-16
9.03272e-16
7.01001e-12
-8.53289e-16
-8.54673e-16
7.00836e-12
7.86223e-16
7.8547e-16
7.00996e-12
-7.8232e-16
-7.79533e-16
7.00866e-12
6.2971e-16
6.30987e-16
7.00988e-12
-5.80143e-16
-5.82405e-16
7.00882e-12
4.87088e-16
4.95139e-16
7.00981e-12
-4.66445e-16
-4.73396e-16
7.0088e-12
4.87052e-16
4.91523e-16
7.00975e-12
-4.54578e-16
-4.58576e-16
7.00858e-12
5.54875e-16
5.57022e-16
7.00986e-12
-6.1117e-16
-6.08773e-16
7.00859e-12
6.09249e-16
6.10786e-16
7.00982e-12
-6.01627e-16
-6.01867e-16
7.00861e-12
5.76381e-16
5.77299e-16
7.00974e-12
-5.43245e-16
-5.46419e-16
7.00874e-12
4.89585e-16
4.88258e-16
7.00972e-12
-4.75424e-16
-4.71755e-16
7.00883e-12
4.32426e-16
4.3242e-16
7.00971e-12
-4.20863e-16
-4.21253e-16
7.00905e-12
3.03714e-16
3.10698e-16
7.00961e-12
-2.58142e-16
-2.65891e-16
7.0092e-12
1.91553e-16
1.96568e-16
7.00954e-12
-1.54961e-16
-1.57556e-16
7.00921e-12
1.3929e-16
1.46941e-16
7.00956e-12
-1.49956e-16
-1.55041e-16
7.00922e-12
1.57299e-16
1.60985e-16
7.00952e-12
-1.39911e-16
-1.41727e-16
7.00925e-12
1.20275e-16
1.22672e-16
7.00946e-12
-9.32928e-17
-9.42897e-17
7.00931e-12
5.78465e-17
6.05294e-17
7.00938e-12
-3.70837e-17
-4.01293e-17
1.81553e-17
4.15634e-18
2.0375e-11
4.3065e-11
5.86094e-11
1.36265e-11
3.99673e-12
5.38941e-12
1.50848e-11
-9.33722e-13
-1.27796e-12
1.48087e-11
1.95212e-13
3.11896e-13
1.50127e-11
-1.42614e-13
-1.80225e-13
1.49626e-11
3.93694e-14
5.04724e-14
1.49727e-11
-1.16396e-14
-1.09695e-14
1.49766e-11
7.82993e-16
-2.6049e-15
1.49697e-11
1.82543e-15
5.16253e-15
1.49741e-11
-2.47915e-15
-4.03709e-15
1.49713e-11
1.22919e-15
2.46574e-15
1.49734e-11
-1.01124e-15
-2.0446e-15
1.49713e-11
7.65396e-16
1.88611e-15
1.49734e-11
-9.23071e-16
-1.96893e-15
1.49713e-11
7.90495e-16
1.93784e-15
1.49732e-11
-8.31472e-16
-2.00077e-15
1.4971e-11
7.31955e-16
2.0493e-15
1.49733e-11
-1.05906e-15
-2.13286e-15
1.49713e-11
8.60776e-16
1.89793e-15
1.49732e-11
-8.10277e-16
-1.80108e-15
1.49714e-11
6.90003e-16
1.65851e-15
1.49732e-11
-8.47529e-16
-1.59501e-15
1.49718e-11
6.10888e-16
1.26674e-15
1.49732e-11
-5.84125e-16
-1.17803e-15
1.4972e-11
3.98701e-16
1.00811e-15
1.49731e-11
-3.83724e-16
-9.84472e-16
1.4972e-11
4.73457e-16
1.01815e-15
1.4973e-11
-3.27284e-16
-9.90298e-16
1.49717e-11
4.67524e-16
1.21218e-15
1.49731e-11
-5.61606e-16
-1.30493e-15
1.49717e-11
5.53033e-16
1.29406e-15
1.4973e-11
-5.62501e-16
-1.27544e-15
1.49717e-11
5.01881e-16
1.23374e-15
1.49729e-11
-5.03739e-16
-1.15758e-15
1.49719e-11
4.42901e-16
1.04371e-15
1.49729e-11
-4.43745e-16
-9.99229e-16
1.4972e-11
3.97447e-16
9.07649e-16
1.4973e-11
-4.3535e-16
-8.74954e-16
1.49723e-11
2.23073e-16
6.41541e-16
1.49729e-11
-2.06739e-16
-5.51857e-16
1.49725e-11
1.59528e-16
3.95934e-16
1.49728e-11
-1.19478e-16
-3.12028e-16
1.49725e-11
6.86212e-17
3.004e-16
1.49729e-11
-7.3088e-17
-3.33418e-16
1.49725e-11
1.41714e-16
3.36054e-16
1.49728e-11
-1.13902e-16
-2.89065e-16
1.49725e-11
7.68225e-17
2.65451e-16
1.49727e-11
-2.87303e-17
-2.31056e-16
1.49726e-11
-4.04167e-17
1.6554e-16
1.49726e-11
2.71601e-17
-1.6076e-16
1.36815e-16
6.82546e-17
2.55452e-11
3.92164e-11
6.3355e-11
1.89454e-11
3.99853e-12
6.59977e-12
2.01906e-11
-7.8828e-13
-1.39128e-12
2.00446e-11
6.82503e-14
2.76473e-13
2.02152e-11
-1.2211e-13
-1.94572e-13
2.01842e-11
2.45588e-14
4.83494e-14
2.01865e-11
-7.20609e-15
-8.67672e-15
2.01932e-11
-2.14519e-16
-4.33258e-15
2.01852e-11
1.86609e-15
6.1308e-15
2.01897e-11
-2.40082e-15
-4.724e-15
2.0187e-11
9.09996e-16
2.67986e-15
2.0189e-11
-7.28532e-16
-2.24789e-15
2.01869e-11
4.38414e-16
2.06137e-15
2.01889e-11
-6.55149e-16
-2.20111e-15
2.01868e-11
4.79325e-16
2.14774e-15
2.01888e-11
-5.52521e-16
-2.17924e-15
2.01865e-11
4.13461e-16
2.21505e-15
2.01888e-11
-8.24866e-16
-2.4315e-15
2.01868e-11
6.03165e-16
2.09708e-15
2.01887e-11
-5.79045e-16
-1.99139e-15
2.01869e-11
4.60163e-16
1.80169e-15
2.01887e-11
-6.89211e-16
-1.81917e-15
2.01874e-11
4.23434e-16
1.40085e-15
2.01887e-11
-4.31209e-16
-1.32025e-15
2.01876e-11
2.06446e-16
1.09622e-15
2.01886e-11
-1.95991e-16
-1.0688e-15
2.01875e-11
3.20854e-16
1.15288e-15
2.01884e-11
-1.39277e-16
-1.04084e-15
2.01871e-11
3.00223e-16
1.32102e-15
2.01886e-11
-3.83363e-16
-1.46062e-15
2.01872e-11
3.60781e-16
1.43572e-15
2.01885e-11
-3.76992e-16
-1.42169e-15
2.01872e-11
3.04852e-16
1.37543e-15
2.01884e-11
-3.50357e-16
-1.27865e-15
2.01873e-11
3.1134e-16
1.12518e-15
2.01884e-11
-3.04523e-16
-1.12095e-15
2.01875e-11
2.5524e-16
1.01458e-15
2.01885e-11
-3.43723e-16
-9.91975e-16
2.01878e-11
9.03209e-17
6.83589e-16
2.01884e-11
-9.59067e-17
-6.04059e-16
2.0188e-11
7.29451e-17
4.34587e-16
2.01883e-11
-5.69913e-17
-3.30929e-16
2.0188e-11
-1.03135e-17
3.07128e-16
2.01884e-11
2.44313e-17
-3.54888e-16
2.0188e-11
7.87235e-17
3.77831e-16
2.01883e-11
-5.45589e-17
-3.23451e-16
2.0188e-11
1.45963e-17
2.94694e-16
2.01883e-11
4.13269e-17
-2.53581e-16
2.01881e-11
-1.25059e-16
1.84257e-16
2.01882e-11
8.04232e-17
-1.67675e-16
1.55518e-16
1.14984e-16
2.87614e-11
3.12825e-11
6.4224e-11
2.26057e-11
3.23851e-12
6.91742e-12
2.37606e-11
-5.67929e-13
-1.37584e-12
2.36384e-11
-2.87882e-14
2.22637e-13
2.38002e-11
-9.02565e-14
-1.97096e-13
2.37736e-11
9.76136e-15
4.38883e-14
2.37742e-11
-2.69892e-15
-7.00544e-15
2.37813e-11
-9.28294e-16
-4.9892e-15
2.37732e-11
1.71098e-15
6.41714e-15
2.37775e-11
-1.99063e-15
-4.88219e-15
2.37749e-11
6.22701e-16
2.59802e-15
2.37769e-11
-4.98962e-16
-2.17182e-15
2.37748e-11
2.25001e-16
1.96968e-15
2.37768e-11
-4.37075e-16
-2.14106e-15
2.37746e-11
2.74525e-16
2.06567e-15
2.37766e-11
-3.81113e-16
-2.07141e-15
2.37743e-11
2.57543e-16
2.09611e-15
2.37766e-11
-6.28084e-16
-2.39671e-15
2.37746e-11
4.20756e-16
2.01625e-15
2.37765e-11
-4.19062e-16
-1.92235e-15
2.37747e-11
3.1707e-16
1.72554e-15
2.37765e-11
-5.22999e-16
-1.81575e-15
2.37752e-11
2.62135e-16
1.36054e-15
2.37765e-11
-2.78057e-16
-1.30942e-15
2.37754e-11
4.86463e-17
1.06267e-15
2.37764e-11
-3.6682e-17
-1.03441e-15
2.37753e-11
1.83777e-16
1.13593e-15
2.37762e-11
-4.52691e-17
-9.55953e-16
2.37749e-11
2.13102e-16
1.25952e-15
2.37763e-11
-2.67518e-16
-1.41523e-15
2.3775e-11
2.24205e-16
1.38303e-15
2.37763e-11
-2.37522e-16
-1.37566e-15
2.37749e-11
1.68741e-16
1.33177e-15
2.37762e-11
-2.43521e-16
-1.23521e-15
2.37751e-11
2.39503e-16
1.06463e-15
2.37762e-11
-2.16287e-16
-1.08197e-15
2.37753e-11
1.57288e-16
9.75136e-16
2.37763e-11
-2.52771e-16
-9.8924e-16
2.37756e-11
-1.32414e-17
6.54102e-16
2.37762e-11
1.34594e-17
-5.99018e-16
2.37758e-11
-9.24719e-18
4.25704e-16
2.37761e-11
-9.56708e-18
-3.15162e-16
2.37758e-11
-6.60918e-17
2.86577e-16
2.37761e-11
1.09028e-16
-3.45613e-16
2.37758e-11
7.99182e-18
3.80412e-16
2.37761e-11
-1.45678e-18
-3.19359e-16
2.37758e-11
-3.05077e-17
2.85641e-16
2.3776e-11
7.85081e-17
-2.35401e-16
2.37758e-11
-1.53766e-16
1.57456e-16
2.37759e-11
9.24037e-17
-1.37553e-16
1.41781e-16
1.13267e-16
3.07741e-11
2.15078e-11
6.40521e-11
2.50879e-11
2.18247e-12
6.7439e-12
2.62192e-11
-3.58326e-13
-1.3414e-12
2.60776e-11
-6.35864e-14
1.79758e-13
2.62372e-11
-5.87957e-14
-1.94457e-13
2.62095e-11
1.2876e-15
3.85518e-14
2.62106e-11
-3.79964e-16
-5.22827e-15
2.62173e-11
-8.14164e-16
-5.49074e-15
2.62094e-11
1.20081e-15
6.61137e-15
2.62136e-11
-1.37776e-15
-4.94868e-15
2.62109e-11
3.53168e-16
2.57413e-15
2.62129e-11
-3.00035e-16
-2.14427e-15
2.62108e-11
7.15376e-17
1.93309e-15
2.62128e-11
-2.25589e-16
-2.13109e-15
2.62107e-11
1.15335e-16
2.03879e-15
2.62126e-11
-2.13461e-16
-2.07425e-15
2.62103e-11
1.42843e-16
2.07872e-15
2.62126e-11
-4.3921e-16
-2.38199e-15
2.62106e-11
2.44987e-16
2.01246e-15
2.62125e-11
-2.65988e-16
-1.91419e-15
2.62107e-11
1.94156e-16
1.7138e-15
2.62125e-11
-3.54811e-16
-1.80345e-15
2.62111e-11
1.16862e-16
1.34466e-15
2.62124e-11
-1.33685e-16
-1.29323e-15
2.62113e-11
-7.11784e-17
1.03413e-15
2.62123e-11
1.08683e-16
-1.02307e-15
2.62112e-11
6.612e-17
1.11787e-15
2.62122e-11
2.58614e-17
-9.50323e-16
2.62109e-11
1.30621e-16
1.26072e-15
2.62123e-11
-1.7666e-16
-1.4001e-15
2.6211e-11
9.73366e-17
1.37621e-15
2.62123e-11
-9.96786e-17
-1.37332e-15
2.62109e-11
6.54252e-17
1.31208e-15
2.62122e-11
-1.50785e-16
-1.22399e-15
2.62111e-11
1.57157e-16
1.07647e-15
2.62122e-11
-1.37446e-16
-1.07838e-15
2.62112e-11
7.68658e-17
9.63777e-16
2.62122e-11
-1.60987e-16
-9.83273e-16
2.62115e-11
-9.69751e-17
6.40539e-16
2.62121e-11
1.13791e-16
-5.88277e-16
2.62117e-11
-7.68418e-17
4.15459e-16
2.62121e-11
3.07272e-17
-3.11249e-16
2.62117e-11
-1.0768e-16
2.74704e-16
2.62121e-11
1.76532e-16
-3.32076e-16
2.62117e-11
-5.7916e-17
3.74778e-16
2.62121e-11
4.09017e-17
-3.12162e-16
2.62117e-11
-6.01905e-17
2.76764e-16
2.6212e-11
9.59971e-17
-2.27782e-16
2.62118e-11
-1.49607e-16
1.4451e-16
2.62119e-11
9.90757e-17
-1.40791e-16
9.14716e-17
1.30007e-16
3.1957e-11
1.09139e-11
6.36884e-11
2.66352e-11
1.07896e-12
6.42691e-12
2.77726e-11
-1.72699e-13
-1.32346e-12
2.76032e-11
-4.508e-14
1.54266e-13
2.77613e-11
-2.95405e-14
-1.90867e-13
2.77313e-11
-6.76489e-16
3.42458e-14
2.77334e-11
-3.28493e-16
-3.78476e-15
2.77397e-11
2.60368e-17
-5.86005e-15
2.7732e-11
3.75999e-16
6.76268e-15
2.7736e-11
-6.66055e-16
-4.97919e-15
2.77334e-11
1.19413e-16
2.5533e-15
2.77354e-11
-1.22118e-16
-2.13112e-15
2.77333e-11
-4.58503e-17
1.9157e-15
2.77353e-11
-2.491e-17
-2.12225e-15
2.77331e-11
-2.0676e-17
2.02921e-15
2.77351e-11
-6.44687e-17
-2.0644e-15
2.77327e-11
3.60445e-17
2.07947e-15
2.7735e-11
-2.37591e-16
-2.38635e-15
2.77331e-11
8.72217e-17
2.0032e-15
2.7735e-11
-1.1211e-16
-1.91173e-15
2.77331e-11
8.09961e-17
1.70911e-15
2.77349e-11
-1.72446e-16
-1.8057e-15
2.77335e-11
-4.40664e-18
1.32932e-15
2.77348e-11
8.81896e-18
-1.28697e-15
2.77337e-11
-1.59829e-16
1.01518e-15
2.77347e-11
2.32606e-16
-1.01004e-15
2.77336e-11
-4.14301e-17
1.1098e-15
2.77346e-11
6.48272e-17
-9.36198e-16
2.77333e-11
4.05057e-17
1.26609e-15
2.77347e-11
-9.00125e-17
-1.40076e-15
2.77334e-11
-1.78623e-17
1.36959e-15
2.77347e-11
3.54145e-17
-1.37123e-15
2.77333e-11
-2.30282e-17
1.30595e-15
2.77346e-11
-6.96691e-17
-1.21522e-15
2.77335e-11
7.40462e-17
1.0795e-15
2.77346e-11
-5.37579e-17
-1.08486e-15
2.77336e-11
8.42611e-18
9.58377e-16
2.77346e-11
-6.13013e-17
-9.83968e-16
2.77339e-11
-1.58935e-16
6.28906e-16
2.77345e-11
2.06846e-16
-5.81893e-16
2.77341e-11
-1.27453e-16
4.06456e-16
2.77345e-11
6.11365e-17
-3.05602e-16
2.77341e-11
-1.41009e-16
2.68338e-16
2.77345e-11
2.33712e-16
-3.26356e-16
2.77341e-11
-1.15558e-16
3.68686e-16
2.77344e-11
7.35712e-17
-3.07421e-16
2.77341e-11
-7.96982e-17
2.72125e-16
2.77344e-11
1.00766e-16
-2.24578e-16
2.77341e-11
-1.30174e-16
1.41997e-16
2.77343e-11
1.00054e-16
-1.41335e-16
2.50432e-17
1.37227e-16
3.25063e-11
3.38749e-16
6.34587e-11
2.73789e-11
4.33275e-16
6.20754e-12
2.85263e-11
-1.11051e-15
-1.31939e-12
2.8339e-11
2.28605e-15
1.43216e-13
2.84962e-11
-1.54533e-15
-1.88566e-13
2.84646e-11
1.14392e-15
3.19273e-14
2.84673e-11
-1.5531e-15
-3.01016e-15
2.84734e-11
1.22709e-15
-6.03653e-15
2.84657e-11
-6.23726e-16
6.85002e-15
2.84698e-11
7.85847e-17
-4.99127e-15
2.84671e-11
-8.335e-17
2.53859e-15
2.84691e-11
4.18065e-17
-2.12346e-15
2.8467e-11
-1.41582e-16
1.90682e-15
2.8469e-11
1.58738e-16
-2.11104e-15
2.84668e-11
-1.41195e-16
2.02367e-15
2.84688e-11
5.97491e-17
-2.04643e-15
2.84665e-11
-6.98754e-17
2.08033e-15
2.84687e-11
-2.35884e-17
-2.39378e-15
2.84668e-11
-4.8332e-17
1.99062e-15
2.84687e-11
3.91354e-17
-1.90651e-15
2.84668e-11
-2.69148e-17
1.70594e-15
2.84686e-11
2.18272e-17
-1.81241e-15
2.84672e-11
-1.04143e-16
1.31756e-15
2.84685e-11
1.487e-16
-1.28458e-15
2.84674e-11
-2.26119e-16
1.0034e-15
2.84684e-11
3.30253e-16
-9.94956e-16
2.84673e-11
-1.41038e-16
1.10497e-15
2.84683e-11
7.49885e-17
-9.19844e-16
2.8467e-11
-5.34592e-17
1.26661e-15
2.84684e-11
-1.27094e-18
-1.4055e-15
2.84671e-11
-1.18231e-16
1.36116e-15
2.84684e-11
1.59962e-16
-1.36379e-15
2.8467e-11
-1.02675e-16
1.3034e-15
2.84683e-11
3.82706e-18
-1.20909e-15
2.84672e-11
-2.83521e-18
1.07537e-15
2.84683e-11
3.30107e-17
-1.08933e-15
2.84673e-11
-5.06137e-17
9.54493e-16
2.84683e-11
4.45131e-17
-9.86787e-16
2.84676e-11
-2.01161e-16
6.18935e-16
2.84682e-11
2.8848e-16
-5.74778e-16
2.84678e-11
-1.62932e-16
3.99446e-16
2.84681e-11
8.19009e-17
-2.99918e-16
2.84678e-11
-1.66832e-16
2.62411e-16
2.84681e-11
2.7967e-16
-3.2145e-16
2.84678e-11
-1.63338e-16
3.63161e-16
2.84681e-11
9.83025e-17
-3.04916e-16
2.84678e-11
-9.19819e-17
2.69697e-16
2.84681e-11
9.62598e-17
-2.22661e-16
2.84678e-11
-1.02433e-16
1.41437e-16
2.84679e-11
9.23635e-17
-1.36856e-16
-4.38905e-17
1.37297e-16
3.25063e-11
-1.09132e-11
6.34587e-11
2.73789e-11
-1.07806e-12
6.20744e-12
2.85263e-11
1.70536e-13
-1.31938e-12
2.83391e-11
4.95494e-14
1.43251e-13
2.84962e-11
2.64769e-14
-1.8858e-13
2.84646e-11
2.95061e-15
3.18684e-14
2.84672e-11
-2.69017e-15
-3.01303e-15
2.84734e-11
2.35976e-15
-5.99363e-15
2.84657e-11
-1.62548e-15
6.85618e-15
2.84698e-11
8.15968e-16
-4.99227e-15
2.84671e-11
-2.82837e-16
2.54377e-15
2.84691e-11
2.03512e-16
-2.12483e-15
2.8467e-11
-2.33113e-16
1.9094e-15
2.8469e-11
3.29647e-16
-2.10684e-15
2.84668e-11
-2.56e-16
2.02493e-15
2.84688e-11
1.80073e-16
-2.04505e-15
2.84665e-11
-1.8079e-16
2.08553e-15
2.84687e-11
1.95362e-16
-2.39947e-15
2.84668e-11
-1.78538e-16
1.99249e-15
2.84687e-11
1.89595e-16
-1.90585e-15
2.84668e-11
-1.40226e-16
1.71091e-15
2.84686e-11
2.17198e-16
-1.81678e-15
2.84672e-11
-1.96625e-16
1.317e-15
2.84685e-11
2.80176e-16
-1.28186e-15
2.84674e-11
-2.80889e-16
9.98257e-16
2.84684e-11
4.04116e-16
-9.83308e-16
2.84673e-11
-2.32027e-16
1.10047e-15
2.84683e-11
8.13289e-17
-9.19469e-16
2.8467e-11
-1.47598e-16
1.26703e-15
2.84685e-11
9.24358e-17
-1.41198e-15
2.84671e-11
-2.10176e-16
1.35947e-15
2.84684e-11
2.71501e-16
-1.35716e-15
2.8467e-11
-1.7743e-16
1.30302e-15
2.84683e-11
8.11875e-17
-1.21196e-15
2.84672e-11
-8.07806e-17
1.07799e-15
2.84683e-11
1.17956e-16
-1.0911e-15
2.84673e-11
-1.0637e-16
9.54844e-16
2.84683e-11
1.49692e-16
-9.88457e-16
2.84676e-11
-2.31418e-16
6.13744e-16
2.84682e-11
3.50868e-16
-5.63686e-16
2.84678e-11
-1.88062e-16
3.95004e-16
2.84681e-11
9.73587e-17
-2.97436e-16
2.84678e-11
-1.83714e-16
2.55248e-16
2.84682e-11
3.08217e-16
-3.12305e-16
2.84678e-11
-2.00283e-16
3.57633e-16
2.84681e-11
1.17159e-16
-3.04203e-16
2.84678e-11
-9.87096e-17
2.68149e-16
2.84681e-11
8.55219e-17
-2.21595e-16
2.84678e-11
-6.83831e-17
1.3948e-16
2.84679e-11
7.77934e-17
-1.32182e-16
-1.08207e-16
1.3687e-16
3.1957e-11
-2.15071e-11
6.36884e-11
2.66352e-11
-2.18148e-12
6.42666e-12
2.77726e-11
3.56353e-13
-1.32344e-12
2.76032e-11
6.77412e-14
1.5437e-13
2.77614e-11
5.5825e-14
-1.90907e-13
2.77313e-11
9.40189e-16
3.40715e-14
2.77334e-11
-2.38685e-15
-3.78419e-15
2.77397e-11
2.99895e-15
-5.73693e-15
2.7732e-11
-2.44846e-15
6.78018e-15
2.77361e-11
1.50652e-15
-4.98112e-15
2.77334e-11
-5.06506e-16
2.56895e-15
2.77354e-11
3.75133e-16
-2.13578e-15
2.77333e-11
-3.37729e-16
1.92403e-15
2.77353e-11
4.93564e-16
-2.11042e-15
2.77331e-11
-3.75213e-16
2.03389e-15
2.77351e-11
3.15523e-16
-2.05813e-15
2.77328e-11
-2.99818e-16
2.09379e-15
2.7735e-11
4.11801e-16
-2.4037e-15
2.77331e-11
-3.20803e-16
2.00855e-15
2.7735e-11
3.40683e-16
-1.90986e-15
2.77331e-11
-2.66666e-16
1.72219e-15
2.77349e-11
4.03412e-16
-1.81938e-15
2.77336e-11
-2.96487e-16
1.32775e-15
2.77348e-11
3.9841e-16
-1.28005e-15
2.77337e-11
-3.35189e-16
1.00051e-15
2.77347e-11
4.58911e-16
-9.76639e-16
2.77336e-11
-3.14983e-16
1.09777e-15
2.77347e-11
1.07201e-16
-9.33445e-16
2.77333e-11
-2.36853e-16
1.26659e-15
2.77348e-11
1.93091e-16
-1.42e-15
2.77334e-11
-3.00789e-16
1.36491e-15
2.77347e-11
3.69191e-16
-1.35268e-15
2.77333e-11
-2.52345e-16
1.30612e-15
2.77346e-11
1.72191e-16
-1.22269e-15
2.77335e-11
-1.65223e-16
1.08558e-15
2.77346e-11
1.96925e-16
-1.09096e-15
2.77336e-11
-1.65336e-16
9.59771e-16
2.77346e-11
2.47521e-16
-9.89354e-16
2.77339e-11
-2.58317e-16
6.14226e-16
2.77345e-11
3.88469e-16
-5.50718e-16
2.77341e-11
-2.08152e-16
3.93591e-16
2.77345e-11
1.11706e-16
-2.98172e-16
2.77341e-11
-1.91259e-16
2.485e-16
2.77345e-11
3.15393e-16
-3.01002e-16
2.77341e-11
-2.26109e-16
3.52602e-16
2.77344e-11
1.32731e-16
-3.05741e-16
2.77341e-11
-1.02139e-16
2.68092e-16
2.77344e-11
7.2302e-17
-2.21895e-16
2.77341e-11
-3.09368e-17
1.3706e-16
2.77343e-11
5.85967e-17
-1.27491e-16
-1.58755e-16
1.34137e-16
3.07741e-11
-3.1282e-11
6.40522e-11
2.50879e-11
-3.23746e-12
6.74355e-12
2.62192e-11
5.66298e-13
-1.34141e-12
2.60777e-11
3.24437e-14
1.79908e-13
2.62373e-11
8.74482e-14
-1.94516e-13
2.62095e-11
-7.61876e-15
3.82727e-14
2.62106e-11
3.08283e-16
-5.19977e-15
2.62173e-11
2.79861e-15
-5.30215e-15
2.62094e-11
-2.93681e-15
6.63075e-15
2.62136e-11
2.08744e-15
-4.95246e-15
2.6211e-11
-7.6589e-16
2.60574e-15
2.62129e-11
5.67069e-16
-2.15601e-15
2.62108e-11
-4.73581e-16
1.95084e-15
2.62128e-11
6.51993e-16
-2.11711e-15
2.62107e-11
-5.12719e-16
2.05289e-15
2.62127e-11
4.58532e-16
-2.06075e-15
2.62103e-11
-4.25491e-16
2.09549e-15
2.62126e-11
6.27231e-16
-2.41374e-15
2.62106e-11
-4.79901e-16
2.02757e-15
2.62125e-11
4.89416e-16
-1.91228e-15
2.62107e-11
-4.02541e-16
1.72838e-15
2.62125e-11
5.80247e-16
-1.82815e-15
2.62112e-11
-4.1074e-16
1.34517e-15
2.62124e-11
5.05863e-16
-1.28509e-15
2.62113e-11
-4.00921e-16
1.01306e-15
2.62123e-11
5.00141e-16
-9.75255e-16
2.62113e-11
-3.96796e-16
1.10302e-15
2.62123e-11
1.54823e-16
-9.43241e-16
2.62109e-11
-3.13024e-16
1.25764e-15
2.62124e-11
3.06434e-16
-1.43272e-15
2.6211e-11
-3.93117e-16
1.37302e-15
2.62123e-11
4.53925e-16
-1.35016e-15
2.62109e-11
-3.39064e-16
1.31808e-15
2.62122e-11
2.75224e-16
-1.23145e-15
2.62111e-11
-2.46649e-16
1.08322e-15
2.62122e-11
2.7232e-16
-1.0925e-15
2.62112e-11
-2.32867e-16
9.68435e-16
2.62122e-11
3.36635e-16
-9.93055e-16
2.62115e-11
-2.87218e-16
6.1874e-16
2.62121e-11
4.0265e-16
-5.41072e-16
2.62117e-11
-2.28179e-16
3.9649e-16
2.62121e-11
1.2863e-16
-3.01936e-16
2.62117e-11
-1.8954e-16
2.42062e-16
2.62121e-11
3.02535e-16
-2.91321e-16
2.62117e-11
-2.42038e-16
3.49927e-16
2.62121e-11
1.48272e-16
-3.10356e-16
2.62118e-11
-1.06907e-16
2.71485e-16
2.6212e-11
6.22438e-17
-2.24851e-16
2.62118e-11
-1.34273e-19
1.39231e-16
2.62119e-11
3.45075e-17
-1.20239e-16
-1.75293e-16
1.21206e-16
2.87614e-11
-3.9216e-11
6.42241e-11
2.26057e-11
-3.99752e-12
6.91706e-12
2.37606e-11
7.87101e-13
-1.37585e-12
2.36386e-11
-6.52166e-14
2.22742e-13
2.38003e-11
1.19545e-13
-1.97129e-13
2.37736e-11
-2.25825e-14
4.35294e-14
2.37742e-11
5.28069e-15
-6.91903e-15
2.37813e-11
1.69768e-15
-4.78526e-15
2.37732e-11
-3.02556e-15
6.44475e-15
2.37775e-11
2.4733e-15
-4.90055e-15
2.37749e-11
-1.06288e-15
2.66722e-15
2.37769e-11
8.01241e-16
-2.20355e-15
2.37748e-11
-6.73756e-16
2.00924e-15
2.37768e-11
8.24409e-16
-2.14582e-15
2.37747e-11
-7.05404e-16
2.106e-15
2.37766e-11
6.26288e-16
-2.08201e-15
2.37743e-11
-6.00455e-16
2.13167e-15
2.37766e-11
8.67909e-16
-2.45093e-15
2.37746e-11
-6.72793e-16
2.06672e-15
2.37765e-11
6.57122e-16
-1.93649e-15
2.37747e-11
-5.64284e-16
1.7526e-15
2.37765e-11
7.60098e-16
-1.8526e-15
2.37752e-11
-5.44203e-16
1.37474e-15
2.37765e-11
6.12208e-16
-1.30362e-15
2.37754e-11
-4.89508e-16
1.04168e-15
2.37764e-11
5.4015e-16
-9.88539e-16
2.37753e-11
-4.92145e-16
1.12427e-15
2.37763e-11
2.35537e-16
-9.6508e-16
2.37749e-11
-3.9868e-16
1.26606e-15
2.37764e-11
4.54246e-16
-1.46552e-15
2.3775e-11
-5.02169e-16
1.39703e-15
2.37763e-11
5.4396e-16
-1.3658e-15
2.3775e-11
-4.62099e-16
1.35111e-15
2.37762e-11
3.97805e-16
-1.25045e-15
2.37751e-11
-3.31823e-16
1.08905e-15
2.37762e-11
3.65433e-16
-1.11146e-15
2.37753e-11
-3.21855e-16
9.90119e-16
2.37763e-11
4.23249e-16
-1.00403e-15
2.37756e-11
-3.22745e-16
6.31512e-16
2.37762e-11
4.00989e-16
-5.40199e-16
2.37758e-11
-2.50874e-16
4.04884e-16
2.37761e-11
1.52043e-16
-3.10959e-16
2.37758e-11
-1.8251e-16
2.4124e-16
2.37762e-11
2.75985e-16
-2.87774e-16
2.37758e-11
-2.49049e-16
3.49987e-16
2.37761e-11
1.65951e-16
-3.1785e-16
2.37758e-11
-1.19569e-16
2.80288e-16
2.37761e-11
6.5281e-17
-2.34171e-16
2.37758e-11
4.039e-18
1.54179e-16
2.37759e-11
1.39626e-17
-1.17788e-16
-1.2785e-16
9.90546e-17
2.55452e-11
-4.30647e-11
6.3355e-11
1.89454e-11
-3.9959e-12
6.59942e-12
2.01906e-11
9.33073e-13
-1.39127e-12
2.00447e-11
-1.92917e-13
2.76515e-13
2.02152e-11
1.4042e-13
-1.94592e-13
2.01842e-11
-3.77794e-14
4.80439e-14
2.01865e-11
1.03149e-14
-8.59345e-15
2.01932e-11
2.42217e-16
-4.11921e-15
2.01852e-11
-2.8134e-15
6.13066e-15
2.01897e-11
2.5003e-15
-4.71389e-15
2.0187e-11
-1.37227e-15
2.74709e-15
2.0189e-11
1.06536e-15
-2.2648e-15
2.01869e-11
-9.55486e-16
2.08844e-15
2.0189e-11
1.03215e-15
-2.19883e-15
2.01868e-11
-9.655e-16
2.16666e-15
2.01888e-11
9.10942e-16
-2.20051e-15
2.01865e-11
-9.28602e-16
2.25734e-15
2.01888e-11
1.10962e-15
-2.45651e-15
2.01868e-11
-9.29974e-16
2.14098e-15
2.01887e-11
8.87015e-16
-2.00202e-15
2.01869e-11
-8.11999e-16
1.83875e-15
2.01887e-11
9.06421e-16
-1.8381e-15
2.01874e-11
-6.97082e-16
1.41678e-15
2.01887e-11
6.98983e-16
-1.30743e-15
2.01876e-11
-5.87311e-16
1.06637e-15
2.01886e-11
5.91688e-16
-1.01827e-15
2.01875e-11
-5.77063e-16
1.12437e-15
2.01885e-11
4.18508e-16
-1.06324e-15
2.01872e-11
-5.65305e-16
1.33526e-15
2.01886e-11
6.35885e-16
-1.49336e-15
2.01872e-11
-6.55139e-16
1.44615e-15
2.01885e-11
6.65554e-16
-1.40463e-15
2.01872e-11
-6.16726e-16
1.37517e-15
2.01884e-11
5.62784e-16
-1.29431e-15
2.01874e-11
-4.85826e-16
1.16195e-15
2.01884e-11
4.93421e-16
-1.14105e-15
2.01875e-11
-4.48176e-16
1.02808e-15
2.01885e-11
4.95401e-16
-9.99514e-16
2.01878e-11
-3.75068e-16
6.5994e-16
2.01884e-11
3.84347e-16
-5.39785e-16
2.0188e-11
-2.64608e-16
4.09054e-16
2.01884e-11
1.8526e-16
-3.27122e-16
2.0188e-11
-1.96033e-16
2.67671e-16
2.01884e-11
2.51453e-16
-2.97871e-16
2.0188e-11
-2.39865e-16
3.45389e-16
2.01883e-11
1.80453e-16
-3.20227e-16
2.0188e-11
-1.41778e-16
2.88567e-16
2.01883e-11
9.30365e-17
-2.50932e-16
2.01881e-11
-3.59807e-17
1.76463e-16
2.01882e-11
2.83615e-17
-1.41976e-16
-6.02219e-17
9.34226e-17
2.0375e-11
-3.69977e-11
5.86095e-11
1.36265e-11
-2.63532e-12
5.3892e-12
1.50848e-11
7.5256e-13
-1.27789e-12
1.48088e-11
-2.26379e-13
3.12315e-13
1.50128e-11
1.14048e-13
-1.80713e-13
1.49626e-11
-3.63586e-14
5.0511e-14
1.49727e-11
1.0004e-14
-1.0999e-14
1.49766e-11
-2.62623e-16
-2.28809e-15
1.49697e-11
-2.43177e-15
4.93052e-15
1.49741e-11
1.85784e-15
-4.02608e-15
1.49713e-11
-1.31969e-15
2.47947e-15
1.49734e-11
1.01768e-15
-2.04308e-15
1.49714e-11
-9.99216e-16
1.864e-15
1.49734e-11
9.6402e-16
-1.94499e-15
1.49713e-11
-9.94877e-16
1.91915e-15
1.49733e-11
9.49214e-16
-1.96406e-15
1.4971e-11
-1.06645e-15
2.0155e-15
1.49733e-11
1.04545e-15
-2.13478e-15
1.49713e-11
-9.30668e-16
1.8958e-15
1.49732e-11
8.94069e-16
-1.77892e-15
1.49714e-11
-8.63476e-16
1.63781e-15
1.49732e-11
8.11665e-16
-1.6012e-15
1.49718e-11
-6.57221e-16
1.26103e-15
1.49732e-11
6.18257e-16
-1.16193e-15
1.49721e-11
-5.5119e-16
9.58341e-16
1.49731e-11
5.21871e-16
-9.20363e-16
1.4972e-11
-5.18673e-16
9.91308e-16
1.4973e-11
4.94944e-16
-9.66456e-16
1.49717e-11
-6.1223e-16
1.18883e-15
1.49731e-11
6.50318e-16
-1.30776e-15
1.49717e-11
-6.41873e-16
1.27626e-15
1.49731e-11
6.25601e-16
-1.24548e-15
1.49717e-11
-6.25183e-16
1.21399e-15
1.4973e-11
5.81479e-16
-1.14328e-15
1.49719e-11
-5.12806e-16
1.03826e-15
1.49729e-11
4.96846e-16
-1.00524e-15
1.4972e-11
-4.51044e-16
9.06883e-16
1.4973e-11
4.45938e-16
-8.72571e-16
1.49723e-11
-3.49829e-16
5.97716e-16
1.49729e-11
3.04933e-16
-4.8907e-16
1.49725e-11
-2.17669e-16
3.68996e-16
1.49728e-11
1.82484e-16
-3.00906e-16
1.49725e-11
-1.87079e-16
2.51162e-16
1.49729e-11
1.99198e-16
-2.74866e-16
1.49725e-11
-1.81734e-16
3.04904e-16
1.49728e-11
1.5485e-16
-2.83764e-16
1.49725e-11
-1.3944e-16
2.57488e-16
1.49727e-11
1.06433e-16
-2.23274e-16
1.49726e-11
-8.36724e-17
1.55454e-16
1.49727e-11
4.20284e-17
-1.22235e-16
1.10763e-16
8.36764e-17
1.10553e-11
3.6998e-11
5.7844e-12
2.63587e-12
7.2895e-12
-7.52561e-13
6.83579e-12
2.27876e-13
7.06531e-12
-1.16076e-13
6.99189e-12
3.73999e-14
7.01229e-12
-1.06333e-14
7.0114e-12
8.46306e-16
7.00704e-12
1.61967e-15
7.01074e-12
-1.89093e-15
7.00814e-12
1.23544e-15
7.01017e-12
-1.01206e-15
7.00823e-12
8.92845e-16
7.01014e-12
-9.39797e-16
7.0082e-12
9.00569e-16
7.01007e-12
-9.07112e-16
7.00805e-12
8.8509e-16
7.01012e-12
-1.00468e-15
7.00826e-12
9.06061e-16
7.01002e-12
-8.37829e-16
7.00836e-12
7.48552e-16
7.00997e-12
-7.75725e-16
7.00867e-12
6.32514e-16
7.00988e-12
-5.7823e-16
7.00883e-12
4.76009e-16
7.00982e-12
-4.58745e-16
7.00881e-12
4.8398e-16
7.00976e-12
-4.41543e-16
7.00859e-12
5.27804e-16
7.00986e-12
-5.99069e-16
7.0086e-12
6.08853e-16
7.00983e-12
-6.01416e-16
7.00862e-12
5.63232e-16
7.00975e-12
-5.26287e-16
7.00874e-12
4.80069e-16
7.00973e-12
-4.7331e-16
7.00883e-12
4.31835e-16
7.00971e-12
-4.18305e-16
7.00905e-12
2.9858e-16
7.00961e-12
-2.50879e-16
7.0092e-12
1.92222e-16
7.00954e-12
-1.49599e-16
7.00921e-12
1.24549e-16
7.00956e-12
-1.38956e-16
7.00922e-12
1.54439e-16
7.00953e-12
-1.4565e-16
7.00926e-12
1.22113e-16
7.00947e-12
-9.87599e-17
7.00931e-12
5.70372e-17
7.00939e-12
-3.55932e-17
9.38056e-17
2.0375e-11
5.86094e-11
4.3065e-11
1.36265e-11
5.38943e-12
3.99674e-12
1.50848e-11
-1.2781e-12
-9.33561e-13
1.48087e-11
3.12065e-13
1.9497e-13
1.50127e-11
-1.80134e-13
-1.42702e-13
1.49626e-11
5.04462e-14
3.94506e-14
1.49727e-11
-1.11413e-14
-1.14482e-14
1.49766e-11
-2.51521e-15
6.44993e-16
1.49697e-11
5.20413e-15
1.77376e-15
1.49741e-11
-4.05585e-15
-2.44947e-15
1.49713e-11
2.45364e-15
1.23772e-15
1.49734e-11
-2.03979e-15
-1.01352e-15
1.49713e-11
1.87494e-15
7.754e-16
1.49734e-11
-1.95336e-15
-9.38961e-16
1.49713e-11
1.91857e-15
8.10407e-16
1.49732e-11
-1.99408e-15
-8.41677e-16
1.4971e-11
2.06279e-15
7.19357e-16
1.49733e-11
-2.13783e-15
-1.04964e-15
1.49713e-11
1.88445e-15
8.71461e-16
1.49732e-11
-1.79942e-15
-8.1294e-16
1.49714e-11
1.67199e-15
6.75137e-16
1.49732e-11
-1.5977e-15
-8.41236e-16
1.49718e-11
1.25359e-15
6.2436e-16
1.49732e-11
-1.16744e-15
-5.95948e-16
1.4972e-11
9.90671e-16
4.22697e-16
1.49731e-11
-9.58444e-16
-4.15288e-16
1.4972e-11
9.97641e-16
4.97429e-16
1.4973e-11
-9.8244e-16
-3.38633e-16
1.49717e-11
1.21982e-15
4.61656e-16
1.49731e-11
-1.30745e-15
-5.55752e-16
1.49717e-11
1.28216e-15
5.65522e-16
1.4973e-11
-1.26242e-15
-5.74984e-16
1.49717e-11
1.21817e-15
5.1713e-16
1.49729e-11
-1.15729e-15
-5.06916e-16
1.49719e-11
1.05408e-15
4.31111e-16
1.49729e-11
-9.96017e-16
-4.42467e-16
1.4972e-11
8.98331e-16
4.06152e-16
1.4973e-11
-8.72594e-16
-4.37469e-16
1.49723e-11
6.27928e-16
2.42574e-16
1.49729e-11
-5.29493e-16
-2.35701e-16
1.49725e-11
3.77238e-16
1.82352e-16
1.49728e-11
-3.04345e-16
-1.29273e-16
1.49725e-11
2.96825e-16
7.93688e-17
1.49729e-11
-3.18351e-16
-9.20944e-17
1.49725e-11
3.20108e-16
1.60643e-16
1.49728e-11
-2.76924e-16
-1.27061e-16
1.49725e-11
2.55139e-16
8.88868e-17
1.49727e-11
-2.20409e-16
-3.96943e-17
1.49726e-11
1.53509e-16
-2.63533e-17
1.49726e-11
-1.51293e-16
1.45113e-17
8.71912e-17
1.18872e-16
4.30402e-11
7.96155e-11
7.96154e-11
3.42325e-11
9.79574e-12
9.79559e-12
3.5216e-11
-1.77082e-12
-1.77044e-12
3.54203e-11
2.14594e-13
2.14327e-13
3.55663e-11
-2.57667e-13
-2.57904e-13
3.55495e-11
6.22739e-14
6.22964e-14
3.55588e-11
-1.86236e-14
-1.80728e-14
3.55551e-11
1.19731e-15
1.06787e-15
3.55545e-11
3.14332e-15
3.01865e-15
3.55546e-11
-4.37118e-15
-4.32828e-15
3.55545e-11
2.01695e-15
2.07201e-15
3.55542e-11
-1.79085e-15
-1.80826e-15
3.55544e-11
1.31717e-15
1.34008e-15
3.5554e-11
-1.64332e-15
-1.69163e-15
3.55544e-11
1.3208e-15
1.3826e-15
3.55537e-11
-1.57111e-15
-1.58463e-15
3.55541e-11
1.34798e-15
1.30207e-15
3.55539e-11
-1.86158e-15
-1.85435e-15
3.55543e-11
1.50528e-15
1.55633e-15
3.5554e-11
-1.46427e-15
-1.45817e-15
3.55542e-11
1.25521e-15
1.2137e-15
3.55543e-11
-1.45925e-15
-1.4611e-15
3.55543e-11
1.05236e-15
1.08033e-15
3.55544e-11
-1.00466e-15
-1.03072e-15
3.55544e-11
7.37651e-16
7.3776e-16
3.55544e-11
-7.46159e-16
-8.03415e-16
3.55545e-11
7.77395e-16
8.4431e-16
3.55541e-11
-6.15535e-16
-6.30102e-16
3.55543e-11
8.88719e-16
8.61341e-16
3.55541e-11
-9.71395e-16
-9.70745e-16
3.55543e-11
1.00222e-15
1.01735e-15
3.5554e-11
-1.01397e-15
-1.04817e-15
3.55543e-11
8.27663e-16
8.82878e-16
3.55541e-11
-8.99369e-16
-8.94264e-16
3.55543e-11
8.4217e-16
8.07295e-16
3.55542e-11
-7.56108e-16
-7.79989e-16
3.55544e-11
6.78874e-16
7.0823e-16
3.55544e-11
-7.45134e-16
-7.51315e-16
3.55544e-11
4.69558e-16
4.54519e-16
3.55545e-11
-4.40448e-16
-4.81093e-16
3.55546e-11
2.54894e-16
3.09755e-16
3.55546e-11
-1.92646e-16
-2.13226e-16
3.55544e-11
2.23988e-16
1.71825e-16
3.55546e-11
-2.12168e-16
-2.33841e-16
3.55545e-11
2.33818e-16
2.82487e-16
3.55545e-11
-1.7062e-16
-2.03286e-16
3.55546e-11
1.04322e-16
1.31232e-16
3.55544e-11
-2.60765e-17
-5.354e-17
3.55546e-11
-1.06975e-16
-7.63176e-17
3.55543e-11
-2.77835e-17
-3.93847e-17
3.42575e-16
3.04215e-16
5.71163e-11
7.86634e-11
9.2243e-11
4.91134e-11
1.12449e-11
1.31582e-11
4.94998e-11
-1.57777e-12
-1.9724e-12
4.99866e-11
-5.92174e-14
7.26616e-14
5.00654e-11
-2.42302e-13
-2.97911e-13
5.0089e-11
3.61552e-14
5.75413e-14
5.00823e-11