/*--------------------------------*- C++ -*----------------------------------*\
  =========                 |
  \\      /  F ield         | OpenFOAM: The Open Source CFD Toolbox
   \\    /   O peration     | Website:  https://openfoam.org
    \\  /    A nd           | Version:  13
     \\/     M anipulation  |
\*---------------------------------------------------------------------------*/
FoamFile
{
    format      ascii;
    class       volVectorField;
    location    "26";
    object      U;
}
// * * * * * * * * * * * * * * * * * * * * * * * * * * * * * * * * * * * * * //

dimensions      [0 1 -1 0 0 0 0];

internalField   nonuniform List<vector> 
9996
(
(0.187325 0.00743697 0.00743697)
(0.166433 0.000442817 0.000442822)
(0.115944 -0.000182339 -0.00018234)
(0.144527 7.02972e-05 7.02861e-05)
(0.133839 -3.05746e-05 -3.05668e-05)
(0.138825 1.12418e-05 1.12482e-05)
(0.136831 -3.59591e-06 -3.59688e-06)
(0.137572 7.05244e-07 6.9792e-07)
(0.137349 1.70695e-07 1.72002e-07)
(0.137372 -3.64343e-07 -3.62808e-07)
(0.137391 2.89999e-07 2.89201e-07)
(0.137377 -2.39597e-07 -2.38966e-07)
(0.137381 2.12243e-07 2.11928e-07)
(0.13738 -2.17067e-07 -2.16562e-07)
(0.137379 2.09094e-07 2.08755e-07)
(0.13738 -2.19973e-07 -2.2045e-07)
(0.137377 2.13048e-07 2.14227e-07)
(0.137377 -2.21918e-07 -2.21422e-07)
(0.137381 2.12866e-07 2.11861e-07)
(0.137378 -1.95073e-07 -1.95325e-07)
(0.137381 1.78646e-07 1.79185e-07)
(0.137378 -1.67006e-07 -1.66607e-07)
(0.137384 1.47679e-07 1.4734e-07)
(0.137381 -1.26707e-07 -1.26694e-07)
(0.137384 1.09346e-07 1.10251e-07)
(0.137383 -1.08202e-07 -1.08419e-07)
(0.137382 1.07928e-07 1.07873e-07)
(0.137383 -1.15481e-07 -1.15944e-07)
(0.137378 1.26384e-07 1.27249e-07)
(0.137381 -1.34686e-07 -1.34365e-07)
(0.137381 1.40639e-07 1.40421e-07)
(0.13738 -1.39681e-07 -1.39081e-07)
(0.137381 1.28617e-07 1.28055e-07)
(0.137379 -1.2261e-07 -1.23283e-07)
(0.137382 1.18014e-07 1.18268e-07)
(0.13738 -1.08799e-07 -1.07891e-07)
(0.137383 1.01186e-07 1.00707e-07)
(0.13738 -8.81942e-08 -8.81793e-08)
(0.137385 6.94101e-08 7.02664e-08)
(0.137382 -5.4532e-08 -5.50963e-08)
(0.137385 4.41406e-08 4.42818e-08)
(0.137383 -3.77104e-08 -3.78736e-08)
(0.137384 3.0755e-08 3.22158e-08)
(0.137384 -3.02143e-08 -3.05713e-08)
(0.137384 3.33079e-08 3.32665e-08)
(0.137384 -3.15576e-08 -3.12916e-08)
(0.137384 2.68342e-08 2.67868e-08)
(0.137383 -2.23006e-08 -2.19322e-08)
(0.137385 1.5194e-08 1.51275e-08)
(0.137382 -1.08255e-08 -1.09681e-08)
(0.137386 1.1937e-08 9.18472e-09)
(0.358497 0.0152622 0.0118693)
(0.345394 0.00127722 0.000891069)
(0.25533 -0.000318032 -0.000324176)
(0.305675 7.91941e-05 0.000115294)
(0.287345 -4.72327e-05 -4.98841e-05)
(0.29595 1.38884e-05 1.70357e-05)
(0.292521 -3.85796e-06 -4.75546e-06)
(0.293794 9.90402e-08 5.10964e-07)
(0.293403 7.90742e-07 5.5523e-07)
(0.293446 -8.47296e-07 -7.99988e-07)
(0.293476 4.88764e-07 6.90938e-07)
(0.293453 -3.98896e-07 -5.93188e-07)
(0.293459 3.41013e-07 5.48118e-07)
(0.29346 -3.73236e-07 -5.86688e-07)
(0.293456 3.47333e-07 5.56841e-07)
(0.293458 -3.57219e-07 -6.78429e-07)
(0.293453 3.46395e-07 6.2286e-07)
(0.293452 -4.13134e-07 -5.63583e-07)
(0.29346 3.56484e-07 6.09237e-07)
(0.293454 -3.34937e-07 -5.36642e-07)
(0.29346 2.99494e-07 4.92326e-07)
(0.293454 -3.20431e-07 -3.76123e-07)
(0.293465 2.47518e-07 3.72028e-07)
(0.293459 -2.30006e-07 -2.75246e-07)
(0.293464 1.79828e-07 2.45061e-07)
(0.293463 -1.73913e-07 -2.76815e-07)
(0.29346 1.91133e-07 2.48304e-07)
(0.293463 -1.63841e-07 -3.75611e-07)
(0.293454 2.10013e-07 3.8101e-07)
(0.29346 -2.37358e-07 -3.57847e-07)
(0.293459 2.36869e-07 4.00345e-07)
(0.293458 -2.36069e-07 -3.94844e-07)
(0.293459 2.18886e-07 3.3008e-07)
(0.293456 -2.11151e-07 -3.3174e-07)
(0.293461 1.90131e-07 3.75181e-07)
(0.293457 -1.86e-07 -3.04083e-07)
(0.293462 1.68179e-07 2.81455e-07)
(0.293458 -1.69522e-07 -1.99941e-07)
(0.293467 1.0953e-07 1.74509e-07)
(0.29346 -9.51496e-08 -1.11387e-07)
(0.293466 7.05559e-08 9.51392e-08)
(0.293463 -5.57118e-08 -9.67359e-08)
(0.293464 4.54848e-08 7.54305e-08)
(0.293464 -4.88186e-08 -5.70312e-08)
(0.293464 5.98927e-08 6.65803e-08)
(0.293464 -5.13649e-08 -6.70684e-08)
(0.293464 4.12579e-08 6.16984e-08)
(0.293462 -2.82958e-08 -6.95712e-08)
(0.293466 9.62371e-09 6.11811e-08)
(0.29346 -8.37993e-09 -8.66827e-08)
(0.293468 2.86267e-08 8.52022e-08)
(0.449295 0.0154859 0.0120271)
(0.457466 0.00153098 0.000992845)
(0.351641 -0.000325341 -0.000348804)
(0.409536 4.92723e-05 0.000119309)
(0.388719 -4.94751e-05 -5.29586e-05)
(0.398516 1.19979e-05 1.75454e-05)
(0.39464 -3.50795e-06 -4.7307e-06)
(0.396057 7.53431e-08 4.25762e-07)
(0.39563 7.06417e-07 6.0032e-07)
(0.395668 -9.19183e-07 -8.76028e-07)
(0.395704 3.94809e-07 7.19948e-07)
(0.395679 -3.21204e-07 -6.37544e-07)
(0.395684 2.21457e-07 5.84978e-07)
(0.395685 -2.90855e-07 -6.29596e-07)
(0.39568 2.33775e-07 5.96904e-07)
(0.395682 -2.47737e-07 -7.12623e-07)
(0.395676 2.05994e-07 6.62427e-07)
(0.395675 -3.5032e-07 -6.20019e-07)
(0.395685 2.65999e-07 6.43284e-07)
(0.395677 -2.54241e-07 -5.74105e-07)
(0.395685 2.0935e-07 5.2247e-07)
(0.395676 -2.8848e-07 -4.15185e-07)
(0.395689 1.91352e-07 3.94927e-07)
(0.395683 -1.91751e-07 -2.99994e-07)
(0.395688 1.14862e-07 2.61813e-07)
(0.395688 -1.08347e-07 -2.92058e-07)
(0.395683 1.49936e-07 2.72762e-07)
(0.395688 -7.97209e-08 -3.86434e-07)
(0.395677 1.38023e-07 4.04907e-07)
(0.395683 -1.74516e-07 -3.89739e-07)
(0.395683 1.67081e-07 4.25944e-07)
(0.395682 -1.72293e-07 -4.22046e-07)
(0.395683 1.4992e-07 3.57832e-07)
(0.395678 -1.56642e-07 -3.53787e-07)
(0.395685 1.33522e-07 3.90941e-07)
(0.39568 -1.37067e-07 -3.3044e-07)
(0.395687 1.19731e-07 3.04579e-07)
(0.395681 -1.46538e-07 -2.1898e-07)
(0.395692 5.87492e-08 1.83303e-07)
(0.395684 -5.94987e-08 -1.22478e-07)
(0.395691 4.48289e-08 1.02603e-07)
(0.395687 -3.23368e-08 -9.9067e-08)
(0.395688 1.1722e-08 8.11612e-08)
(0.395688 -1.2094e-08 -6.57405e-08)
(0.395688 4.30782e-08 7.30178e-08)
(0.395688 -3.24273e-08 -7.19489e-08)
(0.395688 1.79031e-08 6.64292e-08)
(0.395686 2.3863e-09 -7.51026e-08)
(0.39569 -3.10036e-08 6.94993e-08)
(0.395683 2.24819e-08 -9.33294e-08)
(0.395693 5.27075e-08 1.01466e-07)
(0.501245 0.012901 0.0117619)
(0.531639 0.00135723 0.000976586)
(0.420881 -0.000247616 -0.000345574)
(0.480258 3.95361e-06 0.000114961)
(0.458869 -3.89155e-05 -5.25625e-05)
(0.468904 6.09388e-06 1.69795e-05)
(0.464956 -1.77033e-06 -4.47646e-06)
(0.466381 -2.19821e-07 3.16458e-07)
(0.46596 6.5298e-07 6.44855e-07)
(0.465989 -8.06235e-07 -8.84899e-07)
(0.466027 2.71711e-07 6.90188e-07)
(0.466002 -2.15858e-07 -6.1617e-07)
(0.466006 1.10895e-07 5.64009e-07)
(0.466007 -1.92433e-07 -6.07046e-07)
(0.466002 1.27729e-07 5.75327e-07)
(0.466004 -1.61243e-07 -6.73907e-07)
(0.465998 1.10112e-07 6.36573e-07)
(0.465995 -2.57273e-07 -6.08793e-07)
(0.466006 1.78869e-07 6.11274e-07)
(0.465997 -1.74456e-07 -5.53025e-07)
(0.466006 1.33836e-07 5.03785e-07)
(0.465996 -2.17156e-07 -4.13965e-07)
(0.46601 1.20724e-07 3.81582e-07)
(0.466004 -1.2666e-07 -2.98432e-07)
(0.466008 4.26753e-08 2.56851e-07)
(0.466009 -3.96377e-08 -2.80978e-07)
(0.466003 8.88187e-08 2.68981e-07)
(0.466009 -2.7446e-08 -3.59926e-07)
(0.465997 8.74017e-08 3.88611e-07)
(0.466004 -1.12158e-07 -3.79163e-07)
(0.466003 1.0119e-07 4.07453e-07)
(0.466002 -1.07209e-07 -4.04871e-07)
(0.466003 8.03702e-08 3.47891e-07)
(0.465998 -1.03399e-07 -3.41672e-07)
(0.466005 9.56802e-08 3.68279e-07)
(0.466 -8.99299e-08 -3.1929e-07)
(0.466008 7.0729e-08 2.94128e-07)
(0.466 -1.06684e-07 -2.18153e-07)
(0.466013 1.15262e-08 1.76677e-07)
(0.466004 -1.42756e-08 -1.23322e-07)
(0.466011 1.07295e-08 1.01436e-07)
(0.466007 -1.09924e-08 -9.40335e-08)
(0.466009 -1.54987e-08 7.95547e-08)
(0.466009 2.53468e-08 -6.81807e-08)
(0.466009 1.57212e-08 7.41662e-08)
(0.466009 -9.29767e-09 -7.19286e-08)
(0.466008 -4.26514e-09 6.59635e-08)
(0.466007 2.38957e-08 -7.22976e-08)
(0.466011 -5.40287e-08 6.75399e-08)
(0.466003 3.34734e-08 -8.39213e-08)
(0.466014 5.58488e-08 9.43714e-08)
(0.531453 0.0095482 0.0115622)
(0.580309 0.00100021 0.000920139)
(0.469473 -0.00016427 -0.000340785)
(0.528058 -2.13723e-05 0.000111258)
(0.50668 -2.68248e-05 -5.16786e-05)
(0.516624 1.54115e-06 1.63762e-05)
(0.512722 -4.12998e-07 -4.25953e-06)
(0.514121 -3.51304e-07 2.27095e-07)
(0.513712 5.38089e-07 6.86469e-07)
(0.513736 -6.11503e-07 -8.92798e-07)
(0.513773 1.71942e-07 6.81851e-07)
(0.513749 -1.40506e-07 -6.06125e-07)
(0.513752 4.86994e-08 5.54173e-07)
(0.513754 -1.17732e-07 -5.99177e-07)
(0.513748 6.64498e-08 5.65565e-07)
(0.513751 -1.06187e-07 -6.69321e-07)
(0.513744 6.9277e-08 6.32729e-07)
(0.51374 -1.9002e-07 -6.00279e-07)
(0.513752 1.18359e-07 6.03008e-07)
(0.513743 -1.21976e-07 -5.48044e-07)
(0.513752 9.01062e-08 5.01584e-07)
(0.513741 -1.56689e-07 -4.09664e-07)
(0.513756 6.60443e-08 3.76783e-07)
(0.513749 -7.25293e-08 -2.94914e-07)
(0.513753 -7.48282e-09 2.52496e-07)
(0.513754 1.4451e-08 -2.7676e-07)
(0.513747 4.30699e-08 2.63859e-07)
(0.513754 -2.03076e-09 -3.5697e-07)
(0.513742 6.15787e-08 3.8756e-07)
(0.513749 -7.76859e-08 -3.73279e-07)
(0.513749 5.64737e-08 4.01691e-07)
(0.513747 -5.9925e-08 -3.99068e-07)
(0.513749 3.94666e-08 3.41355e-07)
(0.513743 -6.94125e-08 -3.39414e-07)
(0.513751 7.19146e-08 3.67153e-07)
(0.513745 -6.27254e-08 -3.14325e-07)
(0.513753 4.05234e-08 2.89368e-07)
(0.513745 -7.38086e-08 -2.16271e-07)
(0.513758 -2.18027e-08 1.74299e-07)
(0.513748 2.40214e-08 -1.21639e-07)
(0.513756 -1.66907e-08 1.00008e-07)
(0.513752 4.28461e-09 -9.26105e-08)
(0.513754 -3.2483e-08 7.81556e-08)
(0.513753 5.28265e-08 -6.66876e-08)
(0.513753 -9.53392e-09 7.36369e-08)
(0.513754 8.03143e-09 -7.09546e-08)
(0.513753 -1.7446e-08 6.46327e-08)
(0.513752 3.26677e-08 -7.04607e-08)
(0.513756 -5.64821e-08 6.47076e-08)
(0.513747 3.45131e-08 -8.15962e-08)
(0.513759 4.41536e-08 9.38033e-08)
(0.548182 0.00584502 0.0114267)
(0.609884 0.000595739 0.000863061)
(0.500527 -9.29428e-05 -0.000338377)
(0.557905 -2.2986e-05 0.000109046)
(0.53663 -1.58329e-05 -5.08405e-05)
(0.546422 -2.80904e-07 1.59007e-05)
(0.54258 1.86515e-09 -4.09927e-06)
(0.543956 -1.73503e-07 1.69818e-07)
(0.543555 2.97589e-07 7.1441e-07)
(0.543577 -3.6922e-07 -8.98121e-07)
(0.543613 8.19097e-08 6.77034e-07)
(0.54359 -7.45278e-08 -6.00554e-07)
(0.543592 2.74725e-09 5.48468e-07)
(0.543594 -4.4305e-08 -5.947e-07)
(0.543588 1.59654e-08 5.60013e-07)
(0.54359 -4.90163e-08 -6.68695e-07)
(0.543585 3.25286e-08 6.34724e-07)
(0.54358 -1.22294e-07 -5.96079e-07)
(0.543592 5.84636e-08 5.9779e-07)
(0.543582 -6.79985e-08 -5.46593e-07)
(0.543592 4.91794e-08 5.02908e-07)
(0.54358 -9.52856e-08 -4.07328e-07)
(0.543595 1.84213e-08 3.73339e-07)
(0.543588 -2.20375e-08 -2.92409e-07)
(0.543592 -4.37387e-08 2.49205e-07)
(0.543593 6.28101e-08 -2.73534e-07)
(0.543586 3.92607e-09 2.6022e-07)
(0.543593 1.78607e-08 -3.56277e-07)
(0.543582 3.16781e-08 3.89572e-07)
(0.543588 -4.78935e-08 -3.70672e-07)
(0.543588 1.34072e-08 3.98212e-07)
(0.543586 -1.1286e-08 -3.95439e-07)
(0.543588 6.95769e-09 3.36905e-07)
(0.543582 -3.8996e-08 -3.38979e-07)
(0.54359 4.17579e-08 3.68519e-07)
(0.543584 -3.4855e-08 -3.12244e-07)
(0.543593 1.47258e-08 2.8662e-07)
(0.543584 -4.02201e-08 -2.14901e-07)
(0.543597 -4.76888e-08 1.72981e-07)
(0.543587 5.8339e-08 -1.20612e-07)
(0.543595 -3.76536e-08 9.85356e-08)
(0.543591 1.7012e-08 -9.10045e-08)
(0.543592 -4.53726e-08 7.8485e-08)
(0.543592 7.44562e-08 -6.67254e-08)
(0.543592 -3.1626e-08 7.28233e-08)
(0.543592 2.11434e-08 -6.99627e-08)
(0.543592 -2.56794e-08 6.35503e-08)
(0.54359 3.59636e-08 -6.92256e-08)
(0.543594 -5.0813e-08 6.28619e-08)
(0.543585 3.58783e-08 -8.04601e-08)
(0.543598 2.17833e-08 9.42006e-08)
(0.555636 0.00196572 0.011358)
(0.623873 0.000196182 0.000828883)
(0.515685 -3.03104e-05 -0.000337708)
(0.572298 -8.88793e-06 0.000108067)
(0.551082 -5.57861e-06 -5.03364e-05)
(0.560776 -6.17154e-08 1.56372e-05)
(0.55697 -2.92091e-07 -4.0133e-06)
(0.558334 2.15475e-07 1.44252e-07)
(0.557937 -3.76348e-08 7.28603e-07)
(0.557958 -1.0582e-07 -8.99228e-07)
(0.557994 4.99633e-09 6.71172e-07)
(0.557971 -1.38588e-08 -5.95964e-07)
(0.557973 -3.44358e-08 5.43902e-07)
(0.557975 2.49331e-08 -5.89856e-07)
(0.557969 -2.95096e-08 5.54902e-07)
(0.557971 1.31986e-10 -6.65261e-07)
(0.557966 -5.50191e-09 6.36334e-07)
(0.557961 -4.75737e-08 -5.93333e-07)
(0.557973 5.864e-09 5.90917e-07)
(0.557963 -1.3018e-08 -5.44271e-07)
(0.557973 9.90263e-09 5.03839e-07)
(0.557961 -2.75763e-08 -4.06206e-07)
(0.557975 -2.0662e-08 3.6979e-07)
(0.557969 2.85908e-08 -2.90798e-07)
(0.557972 -7.06685e-08 2.46926e-07)
(0.557973 1.02739e-07 -2.69998e-07)
(0.557966 -3.29529e-08 2.57487e-07)
(0.557974 2.61647e-08 -3.53812e-07)
(0.557962 -1.89223e-09 3.90666e-07)
(0.557969 -1.67524e-08 -3.6904e-07)
(0.557969 -2.54071e-08 3.94223e-07)
(0.557967 3.58681e-08 -3.91036e-07)
(0.557968 -2.27452e-08 3.33076e-07)
(0.557963 -1.17701e-08 -3.38366e-07)
(0.557971 1.25843e-08 3.67929e-07)
(0.557964 -3.918e-09 -3.10281e-07)
(0.557973 -7.92543e-09 2.84209e-07)
(0.557964 -3.24638e-09 -2.13982e-07)
(0.557977 -6.6069e-08 1.71769e-07)
(0.557967 8.99508e-08 -1.2019e-07)
(0.557975 -5.27207e-08 9.72902e-08)
(0.557971 2.60956e-08 -8.89271e-08)
(0.557972 -5.60485e-08 7.95736e-08)
(0.557972 9.30821e-08 -6.80589e-08)
(0.557972 -5.04594e-08 7.22898e-08)
(0.557973 3.11995e-08 -6.92196e-08)
(0.557972 -3.11394e-08 6.28552e-08)
(0.557971 3.57815e-08 -6.83075e-08)
(0.557974 -4.20493e-08 6.16982e-08)
(0.557965 3.50061e-08 -7.88737e-08)
(0.557978 -3.46549e-09 9.35383e-08)
(0.555636 -0.00196547 0.011358)
(0.623874 -0.000195872 0.000828877)
(0.515685 2.95135e-05 -0.000337713)
(0.572298 1.05232e-05 0.000108077)
(0.551082 4.4769e-06 -5.03413e-05)
(0.560777 8.77638e-07 1.56352e-05)
(0.55697 -8.14855e-07 -4.02026e-06)
(0.558334 6.5951e-07 1.51342e-07)
(0.557937 -4.0679e-07 7.29073e-07)
(0.557958 1.6117e-07 -8.96259e-07)
(0.557994 -6.45258e-08 6.65604e-07)
(0.557971 4.37563e-08 -5.91978e-07)
(0.557973 -6.69354e-08 5.40237e-07)
(0.557976 8.82944e-08 -5.84883e-07)
(0.557969 -7.11689e-08 5.49931e-07)
(0.557972 4.27136e-08 -6.60603e-07)
(0.557966 -4.45436e-08 6.35873e-07)
(0.557961 3.08226e-08 -5.90375e-07)
(0.557973 -4.05368e-08 5.8418e-07)
(0.557963 4.11252e-08 -5.40969e-07)
(0.557973 -2.92781e-08 5.03781e-07)
(0.557961 4.30765e-08 -4.05125e-07)
(0.557975 -5.3975e-08 3.66875e-07)
(0.557969 7.76114e-08 -2.89533e-07)
(0.557972 -9.15336e-08 2.4557e-07)
(0.557973 1.33261e-07 -2.66629e-07)
(0.557966 -6.71477e-08 2.5516e-07)
(0.557974 2.74639e-08 -3.50977e-07)
(0.557962 -3.62456e-08 3.90144e-07)
(0.557969 1.59781e-08 -3.67341e-07)
(0.557969 -5.94862e-08 3.90283e-07)
(0.557967 7.84215e-08 -3.86156e-07)
(0.557968 -5.01773e-08 3.29585e-07)
(0.557963 1.45595e-08 -3.37672e-07)
(0.557971 -1.48565e-08 3.66011e-07)
(0.557964 2.74051e-08 -3.07607e-07)
(0.557973 -2.8161e-08 2.81898e-07)
(0.557964 3.50478e-08 -2.13209e-07)
(0.557977 -7.84502e-08 1.70636e-07)
(0.557967 1.16279e-07 -1.19641e-07)
(0.557975 -6.31478e-08 9.64322e-08)
(0.557971 3.2274e-08 -8.70216e-08)
(0.557972 -6.38958e-08 8.02047e-08)
(0.557972 1.06899e-07 -6.91219e-08)
(0.557972 -6.56248e-08 7.19988e-08)
(0.557973 3.87989e-08 -6.87238e-08)
(0.557972 -3.44106e-08 6.23838e-08)
(0.557971 3.28533e-08 -6.75442e-08)
(0.557974 -3.09478e-08 6.06647e-08)
(0.557965 3.10417e-08 -7.69693e-08)
(0.557978 -2.80635e-08 9.19361e-08)
(0.548181 -0.00584477 0.0114267)
(0.609885 -0.0005954 0.000863047)
(0.500526 9.21908e-05 -0.000338395)
(0.557906 2.4543e-05 0.000109074)
(0.536631 1.47537e-05 -5.08535e-05)
(0.546422 1.08521e-06 1.58945e-05)
(0.542579 -1.04535e-06 -4.11894e-06)
(0.543956 9.99631e-07 1.90569e-07)
(0.543555 -7.43498e-07 7.15673e-07)
(0.543577 4.19011e-07 -8.89407e-07)
(0.543614 -1.38353e-07 6.60897e-07)
(0.54359 1.02447e-07 -5.88857e-07)
(0.543592 -1.00619e-07 5.37804e-07)
(0.543595 1.4799e-07 -5.80151e-07)
(0.543588 -1.11976e-07 5.45613e-07)
(0.543591 8.87062e-08 -6.54528e-07)
(0.543585 -8.61414e-08 6.3288e-07)
(0.54358 1.08592e-07 -5.87548e-07)
(0.543592 -8.85095e-08 5.78136e-07)
(0.543582 9.53206e-08 -5.36674e-07)
(0.543592 -7.23992e-08 5.0227e-07)
(0.543581 1.11382e-07 -4.04235e-07)
(0.543595 -8.75151e-08 3.64776e-07)
(0.543588 1.22173e-07 -2.88696e-07)
(0.543592 -1.09981e-07 2.45233e-07)
(0.543593 1.5588e-07 -2.63764e-07)
(0.543586 -9.77614e-08 2.53536e-07)
(0.543594 3.27623e-08 -3.47672e-07)
(0.543582 -6.99684e-08 3.87688e-07)
(0.543589 5.03027e-08 -3.65757e-07)
(0.543588 -9.17886e-08 3.86677e-07)
(0.543587 1.15838e-07 -3.81226e-07)
(0.543588 -7.61076e-08 3.26884e-07)
(0.543582 4.45876e-08 -3.36613e-07)
(0.54359 -4.45003e-08 3.62567e-07)
(0.543584 5.67284e-08 -3.04488e-07)
(0.543593 -4.82503e-08 2.79874e-07)
(0.543584 7.15093e-08 -2.12646e-07)
(0.543596 -8.81213e-08 1.69663e-07)
(0.543587 1.34242e-07 -1.18986e-07)
(0.543595 -7.07745e-08 9.60051e-08)
(0.543591 3.73118e-08 -8.55047e-08)
(0.543592 -6.83941e-08 8.02897e-08)
(0.543592 1.1341e-07 -6.97276e-08)
(0.543592 -7.67601e-08 7.1903e-08)
(0.543593 4.46726e-08 -6.85194e-08)
(0.543592 -3.59127e-08 6.21845e-08)
(0.543591 2.81894e-08 -6.7004e-08)
(0.543594 -1.76119e-08 5.98994e-08)
(0.543586 2.50722e-08 -7.49163e-08)
(0.543598 -5.01126e-08 8.96231e-08)
(0.531451 -0.00954798 0.0115622)
(0.58031 -0.000999837 0.000920127)
(0.469471 0.000163618 -0.000340817)
(0.52806 2.27765e-05 0.000111298)
(0.506681 2.57928e-05 -5.16963e-05)
(0.516625 -7.58283e-07 1.63655e-05)
(0.512721 -5.15702e-07 -4.28846e-06)
(0.514122 1.08308e-06 2.59073e-07)
(0.513712 -9.81724e-07 6.88034e-07)
(0.513736 6.50805e-07 -8.79383e-07)
(0.513774 -2.23194e-07 6.5739e-07)
(0.513749 1.65287e-07 -5.87817e-07)
(0.513752 -1.404e-07 5.3768e-07)
(0.513755 2.03815e-07 -5.76513e-07)
(0.513748 -1.54607e-07 5.43755e-07)
(0.513751 1.37118e-07 -6.46082e-07)
(0.513745 -1.26693e-07 6.28211e-07)
(0.513741 1.83349e-07 -5.87348e-07)
(0.513752 -1.40554e-07 5.72934e-07)
(0.513743 1.47224e-07 -5.31893e-07)
(0.513752 -1.17797e-07 4.99168e-07)
(0.513742 1.75034e-07 -4.05038e-07)
(0.513756 -1.24768e-07 3.63441e-07)
(0.513749 1.61583e-07 -2.89028e-07)
(0.513753 -1.29977e-07 2.46393e-07)
(0.513754 1.71865e-07 -2.61938e-07)
(0.513748 -1.25921e-07 2.53781e-07)
(0.513755 4.48043e-08 -3.42884e-07)
(0.513743 -9.81373e-08 3.83518e-07)
(0.51375 8.6529e-08 -3.65803e-07)
(0.513749 -1.22971e-07 3.83805e-07)
(0.513748 1.46943e-07 -3.77157e-07)
(0.513749 -1.0283e-07 3.26221e-07)
(0.513744 7.84909e-08 -3.34684e-07)
(0.513751 -7.36552e-08 3.57123e-07)
(0.513745 8.2634e-08 -3.02415e-07)
(0.513754 -6.95211e-08 2.78792e-07)
(0.513745 1.0437e-07 -2.12729e-07)
(0.513758 -9.7322e-08 1.68888e-07)
(0.513749 1.42917e-07 -1.18718e-07)
(0.513756 -7.75658e-08 9.61661e-08)
(0.513752 4.24469e-08 -8.46501e-08)
(0.513754 -6.89808e-08 7.9905e-08)
(0.513754 1.11869e-07 -7.01454e-08)
(0.513753 -8.40961e-08 7.20864e-08)
(0.513754 4.99365e-08 -6.86248e-08)
(0.513753 -3.67714e-08 6.2433e-08)
(0.513752 2.31839e-08 -6.69242e-08)
(0.513756 -3.80756e-09 6.01834e-08)
(0.513747 1.6726e-08 -7.3057e-08)
(0.513759 -6.38709e-08 8.72549e-08)
(0.501243 -0.0129009 0.0117619)
(0.531641 -0.00135685 0.00097658)
(0.420879 0.000247106 -0.000345609)
(0.480261 -2.74924e-06 0.000114998)
(0.45887 3.79493e-05 -5.258e-05)
(0.468905 -5.34403e-06 1.69656e-05)
(0.464955 9.88291e-07 -4.51014e-06)
(0.466382 8.2446e-07 3.50435e-07)
(0.46596 -1.08417e-06 6.51491e-07)
(0.46599 8.36679e-07 -8.68381e-07)
(0.466027 -3.24396e-07 6.60806e-07)
(0.466002 2.41738e-07 -5.93173e-07)
(0.466006 -1.98789e-07 5.43642e-07)
(0.466008 2.61373e-07 -5.79347e-07)
(0.466002 -2.12175e-07 5.48928e-07)
(0.466005 1.86094e-07 -6.47841e-07)
(0.465998 -1.72807e-07 6.33338e-07)
(0.465996 2.6601e-07 -5.92524e-07)
(0.466006 -2.01168e-07 5.74748e-07)
(0.465998 2.00705e-07 -5.33587e-07)
(0.466006 -1.66773e-07 5.02302e-07)
(0.465996 2.41257e-07 -4.07881e-07)
(0.46601 -1.69039e-07 3.65139e-07)
(0.466004 2.01205e-07 -2.90798e-07)
(0.466008 -1.58313e-07 2.49507e-07)
(0.466009 1.85559e-07 -2.63244e-07)
(0.466003 -1.59023e-07 2.56346e-07)
(0.46601 6.27346e-08 -3.44507e-07)
(0.465998 -1.22006e-07 3.85313e-07)
(0.466005 1.32815e-07 -3.69899e-07)
(0.466003 -1.57019e-07 3.85465e-07)
(0.466003 1.76405e-07 -3.77645e-07)
(0.466004 -1.4028e-07 3.28843e-07)
(0.465999 1.17037e-07 -3.36856e-07)
(0.466006 -9.90246e-08 3.57393e-07)
(0.466 1.11393e-07 -3.04175e-07)
(0.466008 -9.62734e-08 2.80756e-07)
(0.466001 1.36747e-07 -2.13628e-07)
(0.466013 -1.08172e-07 1.69807e-07)
(0.466004 1.4529e-07 -1.19171e-07)
(0.466011 -8.5992e-08 9.68688e-08)
(0.466008 4.94089e-08 -8.5009e-08)
(0.466009 -6.57652e-08 8.06048e-08)
(0.466009 1.0402e-07 -7.08955e-08)
(0.466009 -8.88598e-08 7.22612e-08)
(0.466009 5.63103e-08 -6.88886e-08)
(0.466009 -3.97798e-08 6.30918e-08)
(0.466007 2.10756e-08 -6.77062e-08)
(0.466011 3.94828e-09 6.16976e-08)
(0.466003 6.4891e-09 -7.33836e-08)
(0.466014 -5.82656e-08 8.73888e-08)
(0.449292 -0.0154858 0.012027)
(0.457468 -0.00153064 0.000992825)
(0.351639 0.000325011 -0.000348834)
(0.409538 -4.82858e-05 0.000119349)
(0.388721 4.8584e-05 -5.29861e-05)
(0.398517 -1.13314e-05 1.75456e-05)
(0.394639 2.91263e-06 -4.77889e-06)
(0.396058 3.81583e-07 4.60783e-07)
(0.39563 -1.10557e-06 6.12079e-07)
(0.395669 9.37641e-07 -8.46765e-07)
(0.395704 -4.54329e-07 6.76391e-07)
(0.395679 3.47769e-07 -6.03353e-07)
(0.395684 -3.03174e-07 5.54344e-07)
(0.395686 3.44524e-07 -5.9088e-07)
(0.39568 -3.11195e-07 5.56709e-07)
(0.395683 2.80848e-07 -6.80754e-07)
(0.395677 -2.80496e-07 6.6088e-07)
(0.395676 3.71242e-07 -5.90859e-07)
(0.395685 -2.97038e-07 5.90013e-07)
(0.395677 2.85874e-07 -5.48517e-07)
(0.395685 -2.54072e-07 5.22778e-07)
(0.395676 3.1375e-07 -4.0285e-07)
(0.395689 -2.3114e-07 3.72109e-07)
(0.395683 2.45731e-07 -2.89572e-07)
(0.395688 -2.01254e-07 2.513e-07)
(0.395688 2.09145e-07 -2.6841e-07)
(0.395683 -2.00475e-07 2.54153e-07)
(0.395689 1.17388e-07 -3.68409e-07)
(0.395678 -1.76115e-07 4.03181e-07)
(0.395684 2.04257e-07 -3.72475e-07)
(0.395683 -2.14331e-07 3.94766e-07)
(0.395682 2.23779e-07 -3.84291e-07)
(0.395683 -2.01937e-07 3.29044e-07)
(0.395679 1.78168e-07 -3.49317e-07)
(0.395685 -1.48582e-07 3.77458e-07)
(0.39568 1.59513e-07 -3.07517e-07)
(0.395687 -1.42921e-07 2.85891e-07)
(0.395681 1.72792e-07 -2.12033e-07)
(0.395692 -1.29028e-07 1.74874e-07)
(0.395684 1.45638e-07 -1.18876e-07)
(0.395691 -9.60013e-08 9.63758e-08)
(0.395687 6.24381e-08 -8.67305e-08)
(0.395688 -6.8936e-08 8.6512e-08)
(0.395689 9.69848e-08 -7.30837e-08)
(0.395688 -9.10971e-08 7.11538e-08)
(0.395688 6.46479e-08 -6.85182e-08)
(0.395688 -4.86636e-08 6.32102e-08)
(0.395687 2.88443e-08 -6.92662e-08)
(0.39569 -5.07609e-09 6.14282e-08)
(0.395684 5.71978e-09 -7.8618e-08)
(0.395693 -3.23877e-08 9.51913e-08)
(0.358495 -0.0152621 0.0118692)
(0.345396 -0.00127697 0.000891046)
(0.255329 0.000317913 -0.000324193)
(0.305677 -7.8579e-05 0.000115435)
(0.287346 4.65716e-05 -5.00242e-05)
(0.295951 -1.34579e-05 1.70994e-05)
(0.292521 3.52869e-06 -4.84424e-06)
(0.293795 1.61246e-07 5.79937e-07)
(0.293403 -1.08164e-06 5.3117e-07)
(0.293447 8.42904e-07 -7.63053e-07)
(0.293476 -5.28754e-07 6.22786e-07)
(0.293454 4.08124e-07 -5.48366e-07)
(0.293459 -3.89462e-07 5.01709e-07)
(0.29346 3.94169e-07 -5.3147e-07)
(0.293456 -3.91767e-07 5.03822e-07)
(0.293459 3.7632e-07 -6.10819e-07)
(0.293453 -4.08046e-07 5.93094e-07)
(0.293453 4.27057e-07 -5.28807e-07)
(0.29346 -3.71849e-07 5.30761e-07)
(0.293454 3.55884e-07 -4.94866e-07)
(0.29346 -3.38245e-07 4.68863e-07)
(0.293454 3.36102e-07 -3.63899e-07)
(0.293465 -2.65911e-07 3.36014e-07)
(0.29346 2.5517e-07 -2.64717e-07)
(0.293464 -2.20992e-07 2.29989e-07)
(0.293464 2.15344e-07 -2.44148e-07)
(0.29346 -2.13882e-07 2.31829e-07)
(0.293464 1.87906e-07 -3.30719e-07)
(0.293455 -2.39743e-07 3.60935e-07)
(0.29346 2.58023e-07 -3.33514e-07)
(0.293459 -2.58199e-07 3.53803e-07)
(0.293459 2.55199e-07 -3.45365e-07)
(0.293459 -2.47378e-07 2.97828e-07)
(0.293456 2.30201e-07 -3.14745e-07)
(0.293461 -2.02885e-07 3.37045e-07)
(0.293457 1.98196e-07 -2.75184e-07)
(0.293463 -1.79942e-07 2.5423e-07)
(0.293458 1.84316e-07 -1.92203e-07)
(0.293467 -1.40578e-07 1.59219e-07)
(0.293461 1.30154e-07 -1.10004e-07)
(0.293466 -9.22909e-08 8.82076e-08)
(0.293463 7.20948e-08 -7.92018e-08)
(0.293464 -7.40385e-08 7.81151e-08)
(0.293465 8.49866e-08 -6.67947e-08)
(0.293464 -8.03939e-08 6.49222e-08)
(0.293464 6.4681e-08 -6.32242e-08)
(0.293464 -5.53204e-08 5.79867e-08)
(0.293463 4.05698e-08 -6.19102e-08)
(0.293466 -2.68159e-08 5.29588e-08)
(0.293461 1.66548e-08 -6.65907e-08)
(0.293468 1.63408e-08 8.56654e-08)
(0.187325 -0.00743695 0.007437)
(0.166434 -0.000442728 0.000442836)
(0.115944 0.000182337 -0.000182323)
(0.144527 -7.00917e-05 7.03624e-05)
(0.13384 3.03175e-05 -3.06952e-05)
(0.138825 -1.11039e-05 1.12945e-05)
(0.136831 3.51636e-06 -3.62541e-06)
(0.137572 -6.3387e-07 7.24874e-07)
(0.137348 -2.80984e-07 1.36227e-07)
(0.137372 3.54219e-07 -3.62312e-07)
(0.137391 -2.96706e-07 2.81006e-07)
(0.137377 2.3767e-07 -2.36597e-07)
(0.137381 -2.24646e-07 2.05386e-07)
(0.137381 2.15509e-07 -2.12861e-07)
(0.137379 -2.18677e-07 2.01763e-07)
(0.13738 2.20363e-07 -2.12471e-07)
(0.137377 -2.3689e-07 2.02134e-07)
(0.137377 2.2546e-07 -2.16648e-07)
(0.137381 -2.1034e-07 2.04969e-07)
(0.137378 2.00036e-07 -1.89393e-07)
(0.137381 -1.93068e-07 1.71066e-07)
(0.137378 1.71925e-07 -1.64969e-07)
(0.137384 -1.48589e-07 1.44645e-07)
(0.137381 1.32258e-07 -1.26711e-07)
(0.137384 -1.20675e-07 1.08982e-07)
(0.137383 1.14578e-07 -1.06742e-07)
(0.137382 -1.11064e-07 1.06841e-07)
(0.137383 1.18976e-07 -1.09287e-07)
(0.137378 -1.3633e-07 1.20897e-07)
(0.137382 1.41077e-07 -1.30641e-07)
(0.137381 -1.42092e-07 1.36787e-07)
(0.13738 1.38283e-07 -1.3619e-07)
(0.137381 -1.34956e-07 1.23937e-07)
(0.137379 1.29318e-07 -1.18429e-07)
(0.137382 -1.19358e-07 1.13106e-07)
(0.13738 1.09656e-07 -1.05438e-07)
(0.137383 -1.01434e-07 9.80276e-08)
(0.13738 9.23868e-08 -8.76745e-08)
(0.137385 -7.74819e-08 6.97331e-08)
(0.137382 6.29364e-08 -5.65484e-08)
(0.137385 -4.71117e-08 4.47786e-08)
(0.137383 4.0454e-08 -3.52775e-08)
(0.137384 -4.07826e-08 3.129e-08)
(0.137384 4.0036e-08 -3.25981e-08)
(0.137384 -3.62358e-08 3.38743e-08)
(0.137384 3.26474e-08 -3.22947e-08)
(0.137384 -2.90515e-08 2.70243e-08)
(0.137383 2.30281e-08 -2.28766e-08)
(0.137385 -1.81912e-08 1.43562e-08)
(0.137382 1.04679e-08 -1.04674e-08)
(0.137386 1.46518e-08 2.72574e-08)
(0.358497 0.0118693 0.0152622)
(0.345394 0.000891064 0.00127722)
(0.25533 -0.000324186 -0.000318005)
(0.305675 0.000115323 7.91375e-05)
(0.287345 -4.98803e-05 -4.72376e-05)
(0.29595 1.70297e-05 1.39103e-05)
(0.292521 -4.76247e-06 -3.82177e-06)
(0.293794 5.26462e-07 6.55346e-08)
(0.293403 5.58663e-07 7.83704e-07)
(0.293446 -8.02381e-07 -8.39937e-07)
(0.293476 6.91954e-07 4.89655e-07)
(0.293453 -5.93997e-07 -3.98696e-07)
(0.293459 5.47317e-07 3.42457e-07)
(0.29346 -5.86634e-07 -3.75732e-07)
(0.293456 5.5675e-07 3.50888e-07)
(0.293458 -6.77758e-07 -3.59607e-07)
(0.293453 6.22424e-07 3.4557e-07)
(0.293452 -5.64208e-07 -4.10913e-07)
(0.29346 6.1015e-07 3.5744e-07)
(0.293454 -5.3636e-07 -3.35603e-07)
(0.29346 4.92594e-07 2.97473e-07)
(0.293454 -3.76572e-07 -3.18849e-07)
(0.293465 3.70831e-07 2.49453e-07)
(0.293459 -2.74473e-07 -2.32224e-07)
(0.293464 2.40145e-07 1.84536e-07)
(0.293463 -2.73965e-07 -1.7985e-07)
(0.29346 2.47869e-07 1.95827e-07)
(0.293463 -3.74791e-07 -1.66543e-07)
(0.293454 3.80564e-07 2.09989e-07)
(0.29346 -3.58252e-07 -2.3599e-07)
(0.293459 3.98746e-07 2.38617e-07)
(0.293458 -3.94861e-07 -2.37801e-07)
(0.293459 3.30625e-07 2.21387e-07)
(0.293456 -3.31249e-07 -2.12566e-07)
(0.293461 3.75301e-07 1.88219e-07)
(0.293457 -3.05232e-07 -1.84896e-07)
(0.293462 2.81798e-07 1.69444e-07)
(0.293458 -1.99942e-07 -1.69983e-07)
(0.293467 1.69546e-07 1.132e-07)
(0.29346 -1.07945e-07 -1.00858e-07)
(0.293466 9.39762e-08 7.51576e-08)
(0.293463 -9.64418e-08 -5.78751e-08)
(0.293464 7.0509e-08 4.81692e-08)
(0.293464 -5.40316e-08 -5.23887e-08)
(0.293464 6.59209e-08 6.36249e-08)
(0.293464 -6.66824e-08 -5.37065e-08)
(0.293464 6.12745e-08 4.36137e-08)
(0.293462 -6.92456e-08 -3.00527e-08)
(0.293466 6.06065e-08 1.23095e-08)
(0.29346 -8.53782e-08 -1.07995e-08)
(0.293468 9.01774e-08 2.21646e-08)
(0.768942 0.0266708 0.0266708)
(0.801707 0.0029181 0.00291806)
(0.623031 -0.00059201 -0.000591929)
(0.719252 0.000107301 0.000107237)
(0.685463 -8.29933e-05 -8.30301e-05)
(0.701516 2.20871e-05 2.20962e-05)
(0.695106 -5.78743e-06 -5.66166e-06)
(0.697521 -3.9923e-07 -4.33111e-07)
(0.696728 1.77437e-06 1.75327e-06)
(0.696862 -1.6275e-06 -1.61594e-06)
(0.696891 7.88e-07 8.01063e-07)
(0.696855 -6.7007e-07 -6.74743e-07)
(0.696864 5.57279e-07 5.62432e-07)
(0.696866 -6.06629e-07 -6.17946e-07)
(0.696859 5.59164e-07 5.74289e-07)
(0.696863 -5.38848e-07 -5.42731e-07)
(0.696855 5.61542e-07 5.52512e-07)
(0.696854 -7.19753e-07 -7.17617e-07)
(0.696866 5.37758e-07 5.49672e-07)
(0.696856 -5.47842e-07 -5.47414e-07)
(0.696866 4.92811e-07 4.84242e-07)
(0.696855 -5.80769e-07 -5.806e-07)
(0.696871 3.99732e-07 4.05407e-07)
(0.696863 -4.20345e-07 -4.26645e-07)
(0.696868 3.40785e-07 3.38742e-07)
(0.696869 -3.0495e-07 -3.17355e-07)
(0.696862 3.35974e-07 3.52273e-07)
(0.69687 -2.14977e-07 -2.19173e-07)
(0.696856 3.3677e-07 3.31363e-07)
(0.696864 -4.02914e-07 -4.02555e-07)
(0.696862 3.75654e-07 3.78161e-07)
(0.696861 -3.73385e-07 -3.81681e-07)
(0.696863 3.67605e-07 3.81191e-07)
(0.696858 -3.52293e-07 -3.52174e-07)
(0.696867 2.72396e-07 2.64642e-07)
(0.696859 -2.8991e-07 -2.95198e-07)
(0.696869 2.59972e-07 2.67258e-07)
(0.69686 -3.09806e-07 -3.11714e-07)
(0.696874 2.05996e-07 1.99977e-07)
(0.696862 -2.05205e-07 -2.13495e-07)
(0.696873 1.23721e-07 1.36746e-07)
(0.696868 -8.16003e-08 -8.7034e-08)
(0.696869 1.07657e-07 9.36564e-08)
(0.696869 -1.26345e-07 -1.29842e-07)
(0.696869 1.14448e-07 1.26091e-07)
(0.696869 -8.93212e-08 -9.71824e-08)
(0.69687 7.27214e-08 7.9282e-08)
(0.696866 -4.11592e-08 -4.75485e-08)
(0.696873 2.04642e-09 9.41719e-09)
(0.696862 -7.69218e-10 -3.30974e-09)
(0.696875 3.23478e-08 2.17048e-08)
(1.01062 0.0298308 0.0300757)
(1.11254 0.00401647 0.00375047)
(0.895111 -0.000633998 -0.00066168)
(1.00723 2.76844e-05 7.89108e-05)
(0.96843 -9.26153e-05 -9.23913e-05)
(0.986939 1.81634e-05 2.08908e-05)
(0.979622 -5.24204e-06 -4.56193e-06)
(0.982328 -6.36232e-08 -1.25663e-06)